 Gaussian 16, Revision C.02,
 Gaussian 16:  ES64L-G16RevC.02  7-Dec-2021

 ----------------------------------------------------------------------
 #p freq=raman scale=0.967 guess=read geom=allcheck gen um06l int=grid=
 ultrafine scf=(xqc,intrep,maxconventionalcycle=150) pop=(hirshfeld) no
 symm
 ----------------------------------------------------------------------

 Structure from the checkpoint file:  "/scratch1/svicchi/G09-83793.pbs02/02-freq/FeFeFe-B-1xH2O-freq.chk"
 --------------
 FeFeFe-B-1xH2O
 --------------
 Charge =  0 Multiplicity =15

                          Input orientation:
 ---------------------------------------------------------------------
 Center     Atomic      Atomic             Coordinates (Angstroms)
 Number     Number       Type             X           Y           Z
 ---------------------------------------------------------------------
      1          8           0        1.716778   -2.124577   -1.589864
      2          8           0       -0.478568   -2.498149   -1.211448
      3          6           0        0.600812   -2.696231   -1.785385
      4          1           0        0.614277   -3.469086   -2.573178
      5          8           0        1.890362    2.145381    1.164738
      6          8           0        3.042481    0.210869    1.162109
      7          6           0        2.824409    1.393492    1.520395
      8          1           0        3.550162    1.815081    2.236731
      9          8           0       -2.146238   -0.107237   -1.495643
     10          8           0        2.695120    0.473877   -1.576421
     11          8           0        1.364296    2.286858   -1.612610
     12          6           0        2.315368    1.576321   -2.022444
     13          1           0        2.883973    1.976494   -2.879511
     14          8           0       -0.559410   -2.089737    1.709271
     15          8           0        1.642512   -2.189119    1.216767
     16          6           0        0.616843   -2.441119    1.906366
     17          1           0        0.792958   -3.060506    2.802705
     18         26           0       -1.413334   -1.138418    0.110870
     19          8           0       -2.201793    0.273288    1.462141
     20         26           0        0.128931    1.914474    0.019416
     21          8           0       -0.904822    2.105731    1.702046
     22          8           0       -1.462065    2.016541   -1.147732
     23         26           0        1.889804   -0.775953   -0.165134
     24          8           0        0.227844    0.017624   -0.019608
     25          6           0       -1.841803    1.316293    2.025130
     26          1           0       -2.406067    1.615897    2.925949
     27          6           0       -2.103797    1.107963   -1.747237
     28          1           0       -2.709670    1.448602   -2.604031
     29          7           0       -5.547306   -0.102787    0.503877
     30          7           0       -4.988626    0.622678   -0.096578
     31          8           0       -2.746446   -2.049383    0.203556
     32          8           0        0.260137    4.095811    0.066400
     33          1           0        0.874228    4.294690   -0.653212
     34          1           0        0.737151    4.298987    0.881145
 ---------------------------------------------------------------------

 SCF Done:  E(UM06L) =  -5263.28781019     A.U. after    4 cycles

 Alpha  occ. eigenvalues -- -255.66153-255.65374-255.63029 -30.11235 -30.10410
 Alpha  occ. eigenvalues --  -30.07043 -25.88314 -25.88238 -25.88179 -25.87536
 Alpha  occ. eigenvalues --  -25.87445 -25.87358 -25.84553 -25.84504 -25.84111
 Alpha  occ. eigenvalues --  -19.03887 -18.99833 -18.99681 -18.99614 -18.99609
 Alpha  occ. eigenvalues --  -18.99248 -18.98956 -18.98927 -18.98898 -18.98654
 Alpha  occ. eigenvalues --  -18.98392 -18.98016 -18.97873 -18.97791 -18.97222
 Alpha  occ. eigenvalues --  -14.24614 -14.24471 -10.19585 -10.19524 -10.18542
 Alpha  occ. eigenvalues --  -10.18294 -10.18164 -10.18081  -3.68079  -3.67203
 Alpha  occ. eigenvalues --   -3.60895  -2.42167  -2.42028  -2.41899  -2.41372
 Alpha  occ. eigenvalues --   -2.41185  -2.40992  -2.36014  -2.35807  -2.33539
 Alpha  occ. eigenvalues --   -1.08516  -1.07975  -1.07384  -1.07144  -1.06798
 Alpha  occ. eigenvalues --   -1.06663  -1.05989  -1.05542  -1.00606  -1.00217
 Alpha  occ. eigenvalues --   -0.99704  -0.99398  -0.99107  -0.98984  -0.94827
 Alpha  occ. eigenvalues --   -0.89340  -0.60835  -0.59836  -0.59245  -0.58961
 Alpha  occ. eigenvalues --   -0.58697  -0.58440  -0.56160  -0.50954  -0.50365
 Alpha  occ. eigenvalues --   -0.50259  -0.49791  -0.49408  -0.49110  -0.48971
 Alpha  occ. eigenvalues --   -0.48556  -0.48259  -0.48139  -0.47324  -0.47016
 Alpha  occ. eigenvalues --   -0.46976  -0.46841  -0.45648  -0.44687  -0.44070
 Alpha  occ. eigenvalues --   -0.43438  -0.43158  -0.42543  -0.42040  -0.41443
 Alpha  occ. eigenvalues --   -0.41341  -0.41312  -0.40930  -0.40438  -0.40344
 Alpha  occ. eigenvalues --   -0.39744  -0.39558  -0.39170  -0.38837  -0.38366
 Alpha  occ. eigenvalues --   -0.38266  -0.38166  -0.37719  -0.36212  -0.36006
 Alpha  occ. eigenvalues --   -0.35658  -0.34153  -0.33647  -0.33037  -0.31645
 Alpha  occ. eigenvalues --   -0.31096  -0.30682  -0.30421  -0.30088  -0.29886
 Alpha  occ. eigenvalues --   -0.29669  -0.29446  -0.29166  -0.28950  -0.28651
 Alpha  occ. eigenvalues --   -0.28354  -0.27789  -0.26325  -0.26218  -0.25891
 Alpha  occ. eigenvalues --   -0.24418  -0.24083  -0.23630  -0.23431  -0.22990
 Alpha virt. eigenvalues --   -0.15155  -0.05194  -0.04281  -0.03564  -0.03415
 Alpha virt. eigenvalues --   -0.03405  -0.03221  -0.02998  -0.02680   0.00384
 Alpha virt. eigenvalues --    0.02895   0.06345   0.06675   0.06897   0.08032

  Beta  occ. eigenvalues -- -255.65980-255.65190-255.62914 -29.99472 -29.98867
  Beta  occ. eigenvalues --  -29.97891 -25.79675 -25.79633 -25.79606 -25.79084
  Beta  occ. eigenvalues --  -25.78978 -25.78912 -25.78625 -25.77357 -25.77132
  Beta  occ. eigenvalues --  -19.03713 -18.99527 -18.99396 -18.99345 -18.99319
  Beta  occ. eigenvalues --  -18.98820 -18.98543 -18.98534 -18.98515 -18.98442
  Beta  occ. eigenvalues --  -18.98190 -18.97640 -18.97567 -18.96486 -18.95571
  Beta  occ. eigenvalues --  -14.24613 -14.24470 -10.19585 -10.19527 -10.18543
  Beta  occ. eigenvalues --  -10.18296 -10.18166 -10.18081  -3.42917  -3.42549
  Beta  occ. eigenvalues --   -3.42363  -2.19089  -2.17355  -2.17319  -2.17284
  Beta  occ. eigenvalues --   -2.17252  -2.16804  -2.16790  -2.15741  -2.15295
  Beta  occ. eigenvalues --   -1.07930  -1.07385  -1.06718  -1.06519  -1.06120
  Beta  occ. eigenvalues --   -1.06012  -1.05624  -1.05538  -0.99906  -0.99514
  Beta  occ. eigenvalues --   -0.98902  -0.98658  -0.98303  -0.98209  -0.90628
  Beta  occ. eigenvalues --   -0.84904  -0.60139  -0.59108  -0.58609  -0.58341
  Beta  occ. eigenvalues --   -0.57851  -0.57623  -0.55858  -0.50252  -0.49783
  Beta  occ. eigenvalues --   -0.48914  -0.48304  -0.48003  -0.47742  -0.47274
  Beta  occ. eigenvalues --   -0.47047  -0.46907  -0.46624  -0.46491  -0.46165
  Beta  occ. eigenvalues --   -0.46016  -0.44183  -0.43362  -0.42579  -0.42485
  Beta  occ. eigenvalues --   -0.42148  -0.41440  -0.41198  -0.41061  -0.40587
  Beta  occ. eigenvalues --   -0.37859  -0.37712  -0.36208  -0.35572  -0.32829
  Beta  occ. eigenvalues --   -0.32693  -0.31977  -0.31805  -0.31636  -0.31362
  Beta  occ. eigenvalues --   -0.30802  -0.30383  -0.30238  -0.30014  -0.29511
  Beta  occ. eigenvalues --   -0.29246  -0.29116  -0.28685  -0.28410  -0.28367
  Beta  occ. eigenvalues --   -0.28321  -0.27996  -0.27365  -0.26372  -0.25648
  Beta  occ. eigenvalues --   -0.25300
  Beta virt. eigenvalues --   -0.18541  -0.18432  -0.17951  -0.17348  -0.17067
  Beta virt. eigenvalues --   -0.15540  -0.15401  -0.13241  -0.12531  -0.12353
  Beta virt. eigenvalues --   -0.11766  -0.11292  -0.10815  -0.10105  -0.06719

 Mulliken charges and spin densities:
               1          2
     1  O   -0.548857   0.113962
     2  O   -0.516128   0.055996
     3  C    0.689880  -0.000605
     4  H    0.052553   0.017786
     5  O   -0.583794   0.067464
     6  O   -0.537311   0.082505
     7  C    0.696404  -0.000752
     8  H    0.050838   0.018050
     9  O   -0.492071   0.056924
    10  O   -0.543051   0.073810
    11  O   -0.595467   0.075555
    12  C    0.689071  -0.001927
    13  H    0.050836   0.018471
    14  O   -0.491590   0.052394
    15  O   -0.556552   0.103202
    16  C    0.680561  -0.001761
    17  H    0.053691   0.016230
    18  Fe   1.008968   3.204269
    19  O   -0.527571   0.060572
    20  Fe   1.005429   4.280272
    21  O   -0.562493   0.116949
    22  O   -0.562990   0.118657
    23  Fe   1.009938   4.257859
    24  O   -0.726844   0.511952
    25  C    0.690887   0.002431
    26  H    0.049754   0.019110
    27  C    0.697582  -0.002033
    28  H    0.056852   0.017246
    29  N   -0.014490  -0.001233
    30  N    0.008608   0.002725
    31  O   -0.439171   0.622514
    32  O   -0.543105   0.040978
    33  H    0.371292   0.000069
    34  H    0.378343   0.000357
 Sum of Mulliken charges =  -0.00000  14.00000

 Dipole moment (field-independent basis, Debye):
    X=              4.6614    Y=              5.5913    Z=             -0.1037  Tot=              7.2803
 Quadrupole moment (field-independent basis, Debye-Ang):
   XX=           -176.4766   YY=           -155.0808   ZZ=           -157.9716
   XY=              1.2447   XZ=              2.5175   YZ=              0.9849

  Exact polarizability:     243.918      13.018     239.526      -4.667      -1.437     203.184
 Approx polarizability:     509.509      51.300     478.929     -16.859      -6.129     352.765

                      1                      2                      3
                      A                      A                      A
 Frequencies --     15.4607                28.0923                34.3213
 Red. masses --     13.6466                13.2717                 9.9185
 Frc consts  --      0.0019                 0.0062                 0.0069
 IR Inten    --      0.0135                 0.2448                 0.0774
 Raman Activ --      0.9600                 0.0382                 0.3615

                      4                      5                      6
                      A                      A                      A
 Frequencies --     41.2109                46.4273                57.5337
 Red. masses --      5.8488                 8.2568                13.3474
 Frc consts  --      0.0059                 0.0105                 0.0260
 IR Inten    --      2.2318                 1.6053                 0.3234
 Raman Activ --      0.5619                 0.7480                 0.4216

                      7                      8                      9
                      A                      A                      A
 Frequencies --     65.8370                80.6006                85.1424
 Red. masses --      6.6966                 5.3634                 8.1352
 Frc consts  --      0.0171                 0.0205                 0.0347
 IR Inten    --      2.1011                 2.3803                 0.9123
 Raman Activ --      0.5316                 0.7038                 0.6041

                     10                     11                     12
                      A                      A                      A
 Frequencies --     92.0813                97.4114                99.5036
 Red. masses --      6.9961                 8.0563                 6.9241
 Frc consts  --      0.0350                 0.0450                 0.0404
 IR Inten    --      1.4365                 0.6742                 0.4320
 Raman Activ --      0.6564                 1.6027                 5.1224

                     13                     14                     15
                      A                      A                      A
 Frequencies --    105.6106               114.5137               121.7886
 Red. masses --      5.4938                 6.0826                 7.7968
 Frc consts  --      0.0361                 0.0470                 0.0681
 IR Inten    --      5.3248                 0.0951                 0.4960
 Raman Activ --      2.0886                 2.0231                 4.7923

                     16                     17                     18
                      A                      A                      A
 Frequencies --    123.0107               136.1253               140.8448
 Red. masses --      5.5516                 7.6360                12.0718
 Frc consts  --      0.0495                 0.0834                 0.1411
 IR Inten    --      0.8651                 3.1299                 1.5972
 Raman Activ --      8.0280                 2.0918                 1.6272

                     19                     20                     21
                      A                      A                      A
 Frequencies --    143.7769               145.7696               155.3858
 Red. masses --      7.8699                 6.0498                 6.6352
 Frc consts  --      0.0959                 0.0757                 0.0944
 IR Inten    --      3.2001                 5.5508                 1.4456
 Raman Activ --      0.8781                 1.2344                 1.0317

                     22                     23                     24
                      A                      A                      A
 Frequencies --    161.3324               169.6228               175.3635
 Red. masses --      9.9010                 3.3842                 7.3406
 Frc consts  --      0.1518                 0.0574                 0.1330
 IR Inten    --      0.9036                21.8083                 9.5294
 Raman Activ --      0.3225                 0.3037                 0.1222

                     25                     26                     27
                      A                      A                      A
 Frequencies --    180.7239               188.4064               194.5181
 Red. masses --      6.8671                 6.0256                 4.4499
 Frc consts  --      0.1321                 0.1260                 0.0992
 IR Inten    --     30.3454                16.1662                 7.2430
 Raman Activ --      0.8277                 1.0612                 1.4123

                     28                     29                     30
                      A                      A                      A
 Frequencies --    208.5032               213.1277               230.0599
 Red. masses --      8.2765                 7.6974                 5.9013
 Frc consts  --      0.2120                 0.2060                 0.1840
 IR Inten    --      3.2494                 2.7114                 0.9681
 Raman Activ --      0.5865                 0.3304                 2.7129

                     31                     32                     33
                      A                      A                      A
 Frequencies --    238.3476               243.7664               247.3632
 Red. masses --      3.9098                 4.9107                 5.3398
 Frc consts  --      0.1309                 0.1719                 0.1925
 IR Inten    --      0.0386                 0.3473                 1.3728
 Raman Activ --      1.5362                 1.1125                 1.6994

                     34                     35                     36
                      A                      A                      A
 Frequencies --    251.9588               265.0024               266.3704
 Red. masses --      6.5330                 5.3965                 9.2886
 Frc consts  --      0.2444                 0.2233                 0.3883
 IR Inten    --      2.4182                 8.0895                 4.8979
 Raman Activ --      1.3194                 6.6855                 3.4728

                     37                     38                     39
                      A                      A                      A
 Frequencies --    281.7036               284.9739               293.0255
 Red. masses --      6.9008                 6.4244                 8.3396
 Frc consts  --      0.3227                 0.3074                 0.4219
 IR Inten    --      1.3498                 9.1924                 4.9823
 Raman Activ --      0.8205                 3.0721                 4.9777

                     40                     41                     42
                      A                      A                      A
 Frequencies --    298.0010               306.9878               315.9620
 Red. masses --      4.1096                 5.8930                 5.8884
 Frc consts  --      0.2150                 0.3272                 0.3464
 IR Inten    --     41.7103                33.5624                27.9849
 Raman Activ --      2.8500                 0.2159                11.5759

                     43                     44                     45
                      A                      A                      A
 Frequencies --    320.1302               326.1027               350.8135
 Red. masses --      7.1962                 6.1979                 9.8907
 Frc consts  --      0.4345                 0.3883                 0.7172
 IR Inten    --     39.6810                 4.1870                16.2886
 Raman Activ --      9.7719                32.6569                 1.4365

                     46                     47                     48
                      A                      A                      A
 Frequencies --    365.3063               382.9713               389.0344
 Red. masses --     10.6883                11.4887                10.5563
 Frc consts  --      0.8404                 0.9928                 0.9413
 IR Inten    --     22.6606                95.1216                10.4997
 Raman Activ --      7.1966                 6.7812                10.4322

                     49                     50                     51
                      A                      A                      A
 Frequencies --    408.9630               422.1067               447.4626
 Red. masses --     13.0980                10.3159                11.4960
 Frc consts  --      1.2907                 1.0829                 1.3562
 IR Inten    --    177.2707               166.6278               148.5661
 Raman Activ --      2.6618                 5.4474                 3.8141

                     52                     53                     54
                      A                      A                      A
 Frequencies --    540.8674               573.9680               618.3052
 Red. masses --      1.3785                 7.8036                 1.1321
 Frc consts  --      0.2376                 1.5147                 0.2550
 IR Inten    --    433.5972                70.5065                16.9648
 Raman Activ --      6.2358                16.8265                 5.8529

                     55                     56                     57
                      A                      A                      A
 Frequencies --    659.2596               737.5738               739.6621
 Red. masses --     15.4361                11.3276                11.3219
 Frc consts  --      3.9528                 3.6308                 3.6495
 IR Inten    --    155.8818                 1.3614                23.8440
 Raman Activ --      8.5423                 1.0680                 3.5771

                     58                     59                     60
                      A                      A                      A
 Frequencies --    749.0235               752.5748               753.9242
 Red. masses --     11.2525                11.7435                11.3941
 Frc consts  --      3.7196                 3.9188                 3.8158
 IR Inten    --     44.2702                 2.8304                 9.5343
 Raman Activ --      0.1807                 2.7981                 0.5232

                     61                     62                     63
                      A                      A                      A
 Frequencies --    760.0645               905.2456              1047.3203
 Red. masses --     11.2412                19.0670                 1.6949
 Frc consts  --      3.8262                 9.2059                 1.0954
 IR Inten    --     22.5413                68.6672                 0.1365
 Raman Activ --      0.9046               129.5881                 1.0244

                     64                     65                     66
                      A                      A                      A
 Frequencies --   1047.6377              1050.4921              1050.8712
 Red. masses --      1.6889                 1.7014                 1.6915
 Frc consts  --      1.0921                 1.1062                 1.1006
 IR Inten    --      0.0074                 0.1508                 0.1461
 Raman Activ --      1.3138                 1.5837                 4.3850

                     67                     68                     69
                      A                      A                      A
 Frequencies --   1053.6812              1055.9082              1363.5811
 Red. masses --      1.6875                 1.6842                 4.5928
 Frc consts  --      1.1039                 1.1063                 5.0315
 IR Inten    --      0.0226                 0.0110               111.5760
 Raman Activ --      0.1985                 4.8725                 2.8125

                     70                     71                     72
                      A                      A                      A
 Frequencies --   1369.1414              1379.6182              1383.6360
 Red. masses --      4.3934                 3.1939                 2.5474
 Frc consts  --      4.8523                 3.5817                 2.8734
 IR Inten    --    123.7648               162.0391               211.2256
 Raman Activ --      2.9811                 3.5476                 6.8624

                     73                     74                     75
                      A                      A                      A
 Frequencies --   1391.3659              1393.5530              1394.8098
 Red. masses --      1.3062                 1.1401                 1.2602
 Frc consts  --      1.4898                 1.3045                 1.4445
 IR Inten    --     36.7887                15.3431                 6.4832
 Raman Activ --      5.3876                 5.8338                 2.1257

                     76                     77                     78
                      A                      A                      A
 Frequencies --   1396.7924              1397.2818              1399.4283
 Red. masses --      1.2740                 1.6168                 2.0386
 Frc consts  --      1.4644                 1.8598                 2.3522
 IR Inten    --     16.8305                62.9860               130.0479
 Raman Activ --      3.4274                 0.8429                 1.9553

                     79                     80                     81
                      A                      A                      A
 Frequencies --   1400.9831              1407.5531              1580.2128
 Red. masses --      2.7169                 4.9013                10.6993
 Frc consts  --      3.1418                 5.7213                15.7411
 IR Inten    --    139.4921                55.4057                 1.1468
 Raman Activ --      2.6346                 3.1434                 3.1084

                     82                     83                     84
                      A                      A                      A
 Frequencies --   1601.5004              1604.2898              1613.0475
 Red. masses --     10.5740                10.8109                11.4502
 Frc consts  --     15.9788                16.3937                17.5532
 IR Inten    --      7.8470                 9.5427                31.0506
 Raman Activ --      7.8600                 7.1018                10.4427

                     85                     86                     87
                      A                      A                      A
 Frequencies --   1642.7074              1692.1200              1696.7574
 Red. masses --      1.1123                11.0728                11.4757
 Frc consts  --      1.7685                18.6797                19.4656
 IR Inten    --     89.7024              1219.2699              1189.7341
 Raman Activ --      1.9931                 8.0652                 5.5374

                     88                     89                     90
                      A                      A                      A
 Frequencies --   2426.0689              2968.8958              2977.5987
 Red. masses --     14.0030                 1.0837                 1.0843
 Frc consts  --     48.5600                 5.6280                 5.6641
 IR Inten    --      0.3584                88.6471               105.1701
 Raman Activ --     19.6443               337.5806               304.9736

                     91                     92                     93
                      A                      A                      A
 Frequencies --   2978.1891              2982.0513              2982.5307
 Red. masses --      1.0837                 1.0840                 1.0844
 Frc consts  --      5.6634                 5.6795                 5.6833
 IR Inten    --     63.3875               111.5997               113.3913
 Raman Activ --    399.5805               200.4867               317.0654

                     94                     95                     96
                      A                      A                      A
 Frequencies --   2983.7954              3732.4933              3841.1849
 Red. masses --      1.0845                 1.0447                 1.0816
 Frc consts  --      5.6887                 8.5751                 9.4025
 IR Inten    --     39.3299                37.7912                85.3723
 Raman Activ --    862.2626               103.3425                12.8586

 - Thermochemistry -
 -------------------
 Temperature   298.150 Kelvin.  Pressure   1.00000 Atm.
 Thermochemistry will use frequencies scaled by 0.9670.

 Molecular mass:   515.79729 amu.
 Principal axes and moments of inertia in atomic units:
                           1         2         3
     Eigenvalues --  8050.35689********************
           X            0.98783  -0.14055   0.06660
           Y            0.14137   0.98993  -0.00785
           Z           -0.06483   0.01717   0.99775
 This molecule is an asymmetric top.
 Rotational symmetry number  1.
 Warning -- assumption of classical behavior for rotation
           may cause significant error
 Rotational temperatures (Kelvin)      0.01076     0.00847     0.00647
 Rotational constants (GHZ):           0.22418     0.17651     0.13490
 Zero-point vibrational energy     465237.5 (Joules/Mol)
                                  111.19443 (Kcal/Mol)
 Warning -- explicit consideration of  54 degrees of freedom as
           vibrations may cause significant error
 Vibrational temperatures:     21.51    39.08    47.75    57.34    64.59
          (Kelvin)             80.05    91.60   112.14   118.46   128.11
                              135.53   138.44   146.94   159.32   169.44
                              171.14   189.39   195.96   200.04   202.81
                              216.19   224.46   236.00   243.98   251.44
                              262.13   270.63   290.09   296.52   320.08
                              331.61   339.15   344.16   350.55   368.70
                              370.60   391.93   396.48   407.69   414.61
                              427.11   439.60   445.40   453.71   488.09
                              508.25   532.83   541.26   568.99   587.28
                              622.55   752.51   798.56   860.25   917.23
                             1026.18  1029.09  1042.11  1047.06  1048.93
                             1057.48  1259.47  1457.13  1457.58  1461.55
                             1462.07  1465.98  1469.08  1897.15  1904.88
                             1919.46  1925.05  1935.80  1938.85  1940.60
                             1943.35  1944.03  1947.02  1949.18  1958.32
                             2198.55  2228.16  2232.04  2244.23  2285.49
                             2354.24  2360.69  3375.38  4130.62  4142.73
                             4143.55  4148.92  4149.59  4151.35  5193.01
                             5344.23

 Zero-point correction=                           0.177200 (Hartree/Particle)
 Thermal correction to Energy=                    0.211662
 Thermal correction to Enthalpy=                  0.212606
 Thermal correction to Gibbs Free Energy=         0.106247
 Sum of electronic and zero-point Energies=          -5263.110611
 Sum of electronic and thermal Energies=             -5263.076149
 Sum of electronic and thermal Enthalpies=           -5263.075204
 Sum of electronic and thermal Free Energies=        -5263.181563

                     E (Thermal)             CV                S
                      KCal/Mol        Cal/Mol-Kelvin    Cal/Mol-Kelvin
 Total                  132.820            111.994            223.851
 Electronic               0.000              0.000              5.381
 Translational            0.889              2.981             44.608
 Rotational               0.889              2.981             35.353
 Vibrational            131.042            106.033            138.508
 Vibration     1          0.593              1.986              7.212
 Vibration     2          0.593              1.984              6.026
 Vibration     3          0.594              1.983              5.629
 Vibration     4          0.594              1.981              5.266
 Vibration     5          0.595              1.979              5.030
 Vibration     6          0.596              1.975              4.606
 Vibration     7          0.597              1.972              4.340
 Vibration     8          0.599              1.964              3.942
 Vibration     9          0.600              1.961              3.834
 Vibration    10          0.602              1.957              3.681
 Vibration    11          0.603              1.953              3.571
 Vibration    12          0.603              1.952              3.529
 Vibration    13          0.604              1.947              3.413
 Vibration    14          0.607              1.941              3.256
 Vibration    15          0.608              1.935              3.137
 Vibration    16          0.609              1.934              3.117
 Vibration    17          0.612              1.922              2.922
 Vibration    18          0.614              1.917              2.857
 Vibration    19          0.615              1.914              2.817
 Vibration    20          0.615              1.912              2.791
 Vibration    21          0.618              1.902              2.669
 Vibration    22          0.620              1.896              2.598
 Vibration    23          0.623              1.887              2.503
 Vibration    24          0.625              1.880              2.440
 Vibration    25          0.627              1.873              2.384
 Vibration    26          0.630              1.864              2.306
 Vibration    27          0.633              1.856              2.246
 Vibration    28          0.639              1.838              2.118
 Vibration    29          0.641              1.831              2.078
 Vibration    30          0.648              1.807              1.939
 Vibration    31          0.652              1.794              1.875
 Vibration    32          0.655              1.786              1.835
 Vibration    33          0.657              1.781              1.809
 Vibration    34          0.659              1.773              1.776
 Vibration    35          0.666              1.752              1.687
 Vibration    36          0.667              1.750              1.678
 Vibration    37          0.675              1.724              1.581
 Vibration    38          0.677              1.719              1.561
 Vibration    39          0.682              1.705              1.513
 Vibration    40          0.685              1.696              1.485
 Vibration    41          0.691              1.680              1.435
 Vibration    42          0.696              1.663              1.386
 Vibration    43          0.699              1.655              1.365
 Vibration    44          0.703              1.644              1.334
 Vibration    45          0.719              1.597              1.216
 Vibration    46          0.729              1.569              1.152
 Vibration    47          0.742              1.533              1.078
 Vibration    48          0.747              1.521              1.054
 Vibration    49          0.762              1.480              0.979
 Vibration    50          0.773              1.452              0.933
 Vibration    51          0.794              1.399              0.850
 Vibration    52          0.878              1.199              0.603
 Vibration    53          0.910              1.129              0.534
 Vibration    54          0.956              1.036              0.453

 Normal termination of Gaussian 16 at Wed Feb  1 22:03:52 2023.
