 Gaussian 16, Revision C.02,
 Gaussian 16:  ES64L-G16RevC.02  7-Dec-2021

 ----------------------------------------------------------------------
 #p opt=(cartesian,maxcycle=500) gen um06l int=grid=ultrafine scf=(xqc,
 intrep,maxconventionalcycle=150) pop=(hirshfeld) nosymm
 ----------------------------------------------------------------------

 --------------
 FeFeFe-B-1xH2O
 --------------
 Symbolic Z-matrix:
 Charge =  0 Multiplicity =15

 SCF Done:  E(UM06L) =  -5263.28780712     A.U. after   29 cycles
 SCF Done:  E(UM06L) =  -5263.28705601     A.U. after   17 cycles
 SCF Done:  E(UM06L) =  -5263.28778379     A.U. after   12 cycles
 SCF Done:  E(UM06L) =  -5263.28780715     A.U. after    5 cycles
 SCF Done:  E(UM06L) =  -5263.28775490     A.U. after   12 cycles
 SCF Done:  E(UM06L) =  -5263.28780195     A.U. after   12 cycles
 SCF Done:  E(UM06L) =  -5263.28780716     A.U. after    5 cycles
 SCF Done:  E(UM06L) =  -5263.28780740     A.U. after   10 cycles
 SCF Done:  E(UM06L) =  -5263.28780733     A.U. after    9 cycles
 SCF Done:  E(UM06L) =  -5263.28780764     A.U. after    9 cycles
 SCF Done:  E(UM06L) =  -5263.28780999     A.U. after    8 cycles
 SCF Done:  E(UM06L) =  -5263.28781002     A.U. after    8 cycles
 SCF Done:  E(UM06L) =  -5263.28781005     A.U. after    8 cycles
 SCF Done:  E(UM06L) =  -5263.28781009     A.U. after    8 cycles
 SCF Done:  E(UM06L) =  -5263.28781012     A.U. after    8 cycles
 SCF Done:  E(UM06L) =  -5263.28781014     A.U. after    8 cycles
 SCF Done:  E(UM06L) =  -5263.28780998     A.U. after    8 cycles
 SCF Done:  E(UM06L) =  -5263.28781017     A.U. after    8 cycles
 SCF Done:  E(UM06L) =  -5263.28780937     A.U. after   11 cycles
 SCF Done:  E(UM06L) =  -5263.28781019     A.U. after    8 cycles
 Optimization completed.
    -- Stationary point found.

                          Input orientation:
 ---------------------------------------------------------------------
 Center     Atomic      Atomic             Coordinates (Angstroms)
 Number     Number       Type             X           Y           Z
 ---------------------------------------------------------------------
      1          8           0        1.716778   -2.124577   -1.589864
      2          8           0       -0.478568   -2.498149   -1.211448
      3          6           0        0.600812   -2.696231   -1.785385
      4          1           0        0.614277   -3.469086   -2.573178
      5          8           0        1.890362    2.145381    1.164738
      6          8           0        3.042481    0.210869    1.162109
      7          6           0        2.824409    1.393492    1.520395
      8          1           0        3.550162    1.815081    2.236731
      9          8           0       -2.146238   -0.107237   -1.495643
     10          8           0        2.695120    0.473877   -1.576421
     11          8           0        1.364296    2.286858   -1.612610
     12          6           0        2.315368    1.576321   -2.022444
     13          1           0        2.883973    1.976494   -2.879511
     14          8           0       -0.559410   -2.089737    1.709271
     15          8           0        1.642512   -2.189119    1.216767
     16          6           0        0.616843   -2.441119    1.906366
     17          1           0        0.792958   -3.060506    2.802705
     18         26           0       -1.413334   -1.138418    0.110870
     19          8           0       -2.201793    0.273288    1.462141
     20         26           0        0.128931    1.914474    0.019416
     21          8           0       -0.904822    2.105731    1.702046
     22          8           0       -1.462065    2.016541   -1.147732
     23         26           0        1.889804   -0.775953   -0.165134
     24          8           0        0.227844    0.017624   -0.019608
     25          6           0       -1.841803    1.316293    2.025130
     26          1           0       -2.406067    1.615897    2.925949
     27          6           0       -2.103797    1.107963   -1.747237
     28          1           0       -2.709670    1.448602   -2.604031
     29          7           0       -5.547306   -0.102787    0.503877
     30          7           0       -4.988626    0.622678   -0.096578
     31          8           0       -2.746446   -2.049383    0.203556
     32          8           0        0.260137    4.095811    0.066400
     33          1           0        0.874228    4.294690   -0.653212
     34          1           0        0.737151    4.298987    0.881145
 ---------------------------------------------------------------------

 Alpha  occ. eigenvalues -- -255.66153-255.65374-255.63029 -30.11235 -30.10411
 Alpha  occ. eigenvalues --  -30.07043 -25.88314 -25.88238 -25.88179 -25.87536
 Alpha  occ. eigenvalues --  -25.87445 -25.87358 -25.84553 -25.84504 -25.84111
 Alpha  occ. eigenvalues --  -19.03887 -18.99833 -18.99681 -18.99614 -18.99609
 Alpha  occ. eigenvalues --  -18.99248 -18.98956 -18.98927 -18.98898 -18.98654
 Alpha  occ. eigenvalues --  -18.98392 -18.98016 -18.97873 -18.97791 -18.97222
 Alpha  occ. eigenvalues --  -14.24614 -14.24471 -10.19585 -10.19524 -10.18542
 Alpha  occ. eigenvalues --  -10.18294 -10.18164 -10.18081  -3.68079  -3.67203
 Alpha  occ. eigenvalues --   -3.60895  -2.42168  -2.42028  -2.41899  -2.41372
 Alpha  occ. eigenvalues --   -2.41185  -2.40992  -2.36014  -2.35807  -2.33539
 Alpha  occ. eigenvalues --   -1.08516  -1.07975  -1.07384  -1.07144  -1.06798
 Alpha  occ. eigenvalues --   -1.06663  -1.05989  -1.05542  -1.00606  -1.00217
 Alpha  occ. eigenvalues --   -0.99704  -0.99398  -0.99107  -0.98984  -0.94827
 Alpha  occ. eigenvalues --   -0.89340  -0.60835  -0.59836  -0.59245  -0.58961
 Alpha  occ. eigenvalues --   -0.58697  -0.58440  -0.56160  -0.50954  -0.50365
 Alpha  occ. eigenvalues --   -0.50259  -0.49791  -0.49408  -0.49110  -0.48971
 Alpha  occ. eigenvalues --   -0.48556  -0.48259  -0.48139  -0.47324  -0.47016
 Alpha  occ. eigenvalues --   -0.46976  -0.46841  -0.45648  -0.44687  -0.44070
 Alpha  occ. eigenvalues --   -0.43438  -0.43158  -0.42543  -0.42040  -0.41443
 Alpha  occ. eigenvalues --   -0.41341  -0.41312  -0.40930  -0.40438  -0.40344
 Alpha  occ. eigenvalues --   -0.39744  -0.39558  -0.39170  -0.38837  -0.38366
 Alpha  occ. eigenvalues --   -0.38266  -0.38166  -0.37719  -0.36212  -0.36006
 Alpha  occ. eigenvalues --   -0.35658  -0.34153  -0.33647  -0.33037  -0.31645
 Alpha  occ. eigenvalues --   -0.31096  -0.30682  -0.30421  -0.30088  -0.29886
 Alpha  occ. eigenvalues --   -0.29669  -0.29446  -0.29166  -0.28950  -0.28651
 Alpha  occ. eigenvalues --   -0.28354  -0.27789  -0.26325  -0.26218  -0.25891
 Alpha  occ. eigenvalues --   -0.24418  -0.24083  -0.23630  -0.23431  -0.22990
 Alpha virt. eigenvalues --   -0.15155  -0.05194  -0.04281  -0.03564  -0.03415
 Alpha virt. eigenvalues --   -0.03405  -0.03221  -0.02998  -0.02680   0.00384
 Alpha virt. eigenvalues --    0.02895   0.06345   0.06675   0.06897   0.08032

  Beta  occ. eigenvalues -- -255.65980-255.65190-255.62914 -29.99472 -29.98867
  Beta  occ. eigenvalues --  -29.97891 -25.79675 -25.79633 -25.79606 -25.79084
  Beta  occ. eigenvalues --  -25.78978 -25.78912 -25.78625 -25.77357 -25.77132
  Beta  occ. eigenvalues --  -19.03713 -18.99527 -18.99396 -18.99345 -18.99319
  Beta  occ. eigenvalues --  -18.98820 -18.98543 -18.98534 -18.98515 -18.98442
  Beta  occ. eigenvalues --  -18.98190 -18.97640 -18.97567 -18.96486 -18.95571
  Beta  occ. eigenvalues --  -14.24613 -14.24470 -10.19585 -10.19527 -10.18543
  Beta  occ. eigenvalues --  -10.18296 -10.18166 -10.18081  -3.42917  -3.42549
  Beta  occ. eigenvalues --   -3.42363  -2.19089  -2.17355  -2.17319  -2.17284
  Beta  occ. eigenvalues --   -2.17253  -2.16804  -2.16790  -2.15741  -2.15295
  Beta  occ. eigenvalues --   -1.07930  -1.07385  -1.06718  -1.06519  -1.06120
  Beta  occ. eigenvalues --   -1.06012  -1.05624  -1.05538  -0.99906  -0.99514
  Beta  occ. eigenvalues --   -0.98902  -0.98658  -0.98303  -0.98209  -0.90628
  Beta  occ. eigenvalues --   -0.84904  -0.60139  -0.59108  -0.58609  -0.58341
  Beta  occ. eigenvalues --   -0.57851  -0.57623  -0.55858  -0.50252  -0.49783
  Beta  occ. eigenvalues --   -0.48914  -0.48304  -0.48003  -0.47742  -0.47274
  Beta  occ. eigenvalues --   -0.47047  -0.46907  -0.46624  -0.46491  -0.46165
  Beta  occ. eigenvalues --   -0.46016  -0.44183  -0.43362  -0.42579  -0.42485
  Beta  occ. eigenvalues --   -0.42148  -0.41440  -0.41198  -0.41061  -0.40587
  Beta  occ. eigenvalues --   -0.37859  -0.37712  -0.36208  -0.35572  -0.32829
  Beta  occ. eigenvalues --   -0.32693  -0.31977  -0.31805  -0.31636  -0.31362
  Beta  occ. eigenvalues --   -0.30802  -0.30383  -0.30238  -0.30014  -0.29511
  Beta  occ. eigenvalues --   -0.29246  -0.29116  -0.28685  -0.28410  -0.28367
  Beta  occ. eigenvalues --   -0.28321  -0.27996  -0.27365  -0.26372  -0.25648
  Beta  occ. eigenvalues --   -0.25300
  Beta virt. eigenvalues --   -0.18541  -0.18432  -0.17951  -0.17348  -0.17067
  Beta virt. eigenvalues --   -0.15540  -0.15401  -0.13241  -0.12531  -0.12353
  Beta virt. eigenvalues --   -0.11766  -0.11292  -0.10815  -0.10105  -0.06719

 Mulliken charges and spin densities:
               1          2
     1  O   -0.548857   0.113962
     2  O   -0.516128   0.055996
     3  C    0.689880  -0.000605
     4  H    0.052553   0.017786
     5  O   -0.583794   0.067465
     6  O   -0.537311   0.082506
     7  C    0.696404  -0.000752
     8  H    0.050838   0.018050
     9  O   -0.492071   0.056924
    10  O   -0.543052   0.073810
    11  O   -0.595467   0.075555
    12  C    0.689072  -0.001927
    13  H    0.050836   0.018471
    14  O   -0.491590   0.052394
    15  O   -0.556552   0.103203
    16  C    0.680561  -0.001761
    17  H    0.053691   0.016230
    18  Fe   1.008968   3.204270
    19  O   -0.527571   0.060572
    20  Fe   1.005428   4.280271
    21  O   -0.562493   0.116949
    22  O   -0.562990   0.118657
    23  Fe   1.009937   4.257858
    24  O   -0.726843   0.511953
    25  C    0.690887   0.002431
    26  H    0.049754   0.019110
    27  C    0.697582  -0.002033
    28  H    0.056852   0.017246
    29  N   -0.014492  -0.001233
    30  N    0.008609   0.002725
    31  O   -0.439171   0.622513
    32  O   -0.543105   0.040978
    33  H    0.371292   0.000069
    34  H    0.378343   0.000357
 Sum of Mulliken charges =  -0.00000  14.00000

 Dipole moment (field-independent basis, Debye):
    X=              4.6614    Y=              5.5913    Z=             -0.1037  Tot=              7.2803
 Quadrupole moment (field-independent basis, Debye-Ang):
   XX=           -176.4767   YY=           -155.0808   ZZ=           -157.9716
   XY=              1.2447   XZ=              2.5176   YZ=              0.9849

 Normal termination of Gaussian 16 at Wed Feb  1 06:10:56 2023.
