 Gaussian 16, Revision C.02,
 Gaussian 16:  ES64L-G16RevC.02  7-Dec-2021

 ----------------------------------------------------------------------
 # SP Geom=AllCheckpoint um06l/Def2TZVP int=grid=ultrafine scf=(xqc,int
 rep,maxconventionalcycle=500) pop=(CM5) nosymm guess=read
 ----------------------------------------------------------------------

 Structure from the checkpoint file:  "/scratch1/svicchi/G09-564647.pbs02/00-opt/FeFeFe-B-2xH2O-broken-V04-opt.chk"
 --------------
 FeFeFe-B-0xH2O
 --------------
 Charge =  0 Multiplicity = 5

                          Input orientation:
 ---------------------------------------------------------------------
 Center     Atomic      Atomic             Coordinates (Angstroms)
 Number     Number       Type             X           Y           Z
 ---------------------------------------------------------------------
      1          8           0        1.654104   -2.108060   -1.587075
      2          8           0       -0.526169   -2.513544   -1.174096
      3          6           0        0.537150   -2.671063   -1.786764
      4          1           0        0.527499   -3.401721   -2.615711
      5          8           0        1.866797    2.236070    1.180184
      6          8           0        2.946151    0.272945    1.382121
      7          6           0        2.738628    1.475550    1.659291
      8          1           0        3.410980    1.918495    2.414972
      9          8           0       -2.106049   -0.130305   -1.490690
     10          8           0        2.809527    0.486539   -1.438213
     11          8           0        1.382451    2.213978   -1.624194
     12          6           0        2.384885    1.541889   -1.958105
     13          1           0        2.965823    1.931570   -2.813410
     14          8           0       -0.584441   -2.098590    1.776050
     15          8           0        1.609912   -2.281859    1.281187
     16          6           0        0.576307   -2.489457    1.976702
     17          1           0        0.733871   -3.106474    2.878451
     18         26           0       -1.396192   -1.141067    0.150473
     19          8           0       -2.203912    0.274962    1.466602
     20         26           0        0.148470    1.859447    0.029179
     21          8           0       -0.904179    2.103791    1.700791
     22          8           0       -1.425527    1.996524   -1.166060
     23         26           0        1.981819   -0.843969   -0.028618
     24          8           0        0.287423   -0.023408    0.040073
     25          6           0       -1.845344    1.324054    2.022954
     26          1           0       -2.420176    1.633154    2.913996
     27          6           0       -2.066457    1.081653   -1.755758
     28          1           0       -2.672760    1.412663   -2.616461
     29          7           0       -4.965039    0.637726   -0.129774
     30          7           0       -5.515820   -0.072341    0.495911
     31          8           0       -2.744409   -2.031597    0.238135
     32          8           0        0.240212    4.067771   -0.006181
     33          1           0        0.710570    4.243420   -0.831888
     34          1           0        0.879619    4.249023    0.695781
     35          8           0        3.996325   -1.719637   -0.363906
     36          1           0        4.470077   -0.986614   -0.778107
     37          1           0        3.775744   -2.312159   -1.097030
 ---------------------------------------------------------------------

 SCF Done:  E(UM06L) =  -5339.76934828     A.U. after   26 cycles

 Alpha  occ. eigenvalues -- -255.64958-255.64711-255.62638 -30.09926 -30.06652
 Alpha  occ. eigenvalues --  -29.98243 -25.87020 -25.86980 -25.86879 -25.84141
 Alpha  occ. eigenvalues --  -25.84102 -25.83746 -25.78407 -25.78388 -25.78376
 Alpha  occ. eigenvalues --  -19.02420 -19.01999 -18.99031 -18.98928 -18.98726
 Alpha  occ. eigenvalues --  -18.98665 -18.98368 -18.98152 -18.98094 -18.98064
 Alpha  occ. eigenvalues --  -18.97989 -18.97856 -18.97539 -18.97427 -18.97212
 Alpha  occ. eigenvalues --  -18.96753 -14.24223 -14.24081 -10.18980 -10.18845
 Alpha  occ. eigenvalues --  -10.17881 -10.17760 -10.17719 -10.17443  -3.66635
 Alpha  occ. eigenvalues --   -3.60518  -3.41818  -2.40725  -2.40627  -2.40431
 Alpha  occ. eigenvalues --   -2.35556  -2.35397  -2.33238  -2.16290  -2.16185
 Alpha  occ. eigenvalues --   -2.16116  -1.07560  -1.07030  -1.06605  -1.06324
 Alpha  occ. eigenvalues --   -1.06100  -1.05914  -1.05149  -1.04581  -1.04017
 Alpha  occ. eigenvalues --   -0.99540  -0.99197  -0.98869  -0.98490  -0.98350
 Alpha  occ. eigenvalues --   -0.98142  -0.92276  -0.88608  -0.59791  -0.58823
 Alpha  occ. eigenvalues --   -0.58466  -0.58175  -0.57900  -0.57623  -0.54768
 Alpha  occ. eigenvalues --   -0.54225  -0.49867  -0.49654  -0.49082  -0.48531
 Alpha  occ. eigenvalues --   -0.48329  -0.47884  -0.47660  -0.47344  -0.46818
 Alpha  occ. eigenvalues --   -0.46696  -0.46589  -0.46325  -0.45905  -0.44944
 Alpha  occ. eigenvalues --   -0.44277  -0.42814  -0.42449  -0.42319  -0.41669
 Alpha  occ. eigenvalues --   -0.41202  -0.41038  -0.40947  -0.40873  -0.40629
 Alpha  occ. eigenvalues --   -0.40231  -0.39355  -0.39283  -0.38184  -0.38032
 Alpha  occ. eigenvalues --   -0.37591  -0.37485  -0.35831  -0.35670  -0.35356
 Alpha  occ. eigenvalues --   -0.34225  -0.33590  -0.33277  -0.33085  -0.31218
 Alpha  occ. eigenvalues --   -0.31016  -0.30918  -0.30074  -0.29650  -0.29383
 Alpha  occ. eigenvalues --   -0.29113  -0.29086  -0.28820  -0.28585  -0.28291
 Alpha  occ. eigenvalues --   -0.28048  -0.27684  -0.27495  -0.26999  -0.25904
 Alpha  occ. eigenvalues --   -0.24704  -0.24359  -0.23269  -0.23171  -0.22532
 Alpha virt. eigenvalues --   -0.16893  -0.16732  -0.16059  -0.14245  -0.11198
 Alpha virt. eigenvalues --   -0.10578  -0.04141  -0.03605  -0.03026  -0.02949
 Alpha virt. eigenvalues --   -0.02810  -0.02482  -0.02416  -0.02077   0.01236

  Beta  occ. eigenvalues -- -255.64879-255.64790-255.62527 -30.09823 -29.98327
  Beta  occ. eigenvalues --  -29.97484 -25.86936 -25.86871 -25.86773 -25.78490
  Beta  occ. eigenvalues --  -25.78480 -25.78460 -25.78232 -25.76918 -25.76758
  Beta  occ. eigenvalues --  -19.02265 -19.02154 -18.98941 -18.98929 -18.98802
  Beta  occ. eigenvalues --  -18.98716 -18.98448 -18.98366 -18.97994 -18.97868
  Beta  occ. eigenvalues --  -18.97773 -18.97653 -18.97539 -18.97271 -18.96999
  Beta  occ. eigenvalues --  -18.95214 -14.24222 -14.24079 -10.18984 -10.18843
  Beta  occ. eigenvalues --  -10.17883 -10.17760 -10.17709 -10.17444  -3.66527
  Beta  occ. eigenvalues --   -3.41926  -3.41875  -2.40651  -2.40509  -2.40308
  Beta  occ. eigenvalues --   -2.18659  -2.16354  -2.16235  -2.16177  -2.15234
  Beta  occ. eigenvalues --   -2.14914  -1.07570  -1.07060  -1.06567  -1.06102
  Beta  occ. eigenvalues --   -1.05980  -1.05471  -1.05145  -1.04334  -1.04258
  Beta  occ. eigenvalues --   -0.99549  -0.99236  -0.98779  -0.98368  -0.98094
  Beta  occ. eigenvalues --   -0.97644  -0.92223  -0.84698  -0.59779  -0.58828
  Beta  occ. eigenvalues --   -0.58462  -0.57928  -0.57806  -0.57124  -0.54586
  Beta  occ. eigenvalues --   -0.54417  -0.49860  -0.49610  -0.48733  -0.48467
  Beta  occ. eigenvalues --   -0.48338  -0.47750  -0.47135  -0.46987  -0.46742
  Beta  occ. eigenvalues --   -0.46311  -0.46171  -0.45670  -0.45628  -0.44717
  Beta  occ. eigenvalues --   -0.44180  -0.42643  -0.42311  -0.42114  -0.41552
  Beta  occ. eigenvalues --   -0.41094  -0.41005  -0.40781  -0.40575  -0.40294
  Beta  occ. eigenvalues --   -0.40020  -0.39360  -0.39112  -0.37293  -0.36055
  Beta  occ. eigenvalues --   -0.35804  -0.35314  -0.34478  -0.33481  -0.31902
  Beta  occ. eigenvalues --   -0.31468  -0.31203  -0.30838  -0.30242  -0.30053
  Beta  occ. eigenvalues --   -0.29982  -0.29612  -0.29354  -0.29114  -0.28753
  Beta  occ. eigenvalues --   -0.28416  -0.28184  -0.28042  -0.27891  -0.27766
  Beta  occ. eigenvalues --   -0.27105  -0.25699  -0.25472  -0.24888  -0.24220
  Beta  occ. eigenvalues --   -0.24026
  Beta virt. eigenvalues --   -0.17096  -0.16417  -0.16296  -0.15147  -0.12151
  Beta virt. eigenvalues --   -0.11647  -0.11418  -0.10463  -0.10327  -0.06540
  Beta virt. eigenvalues --   -0.04175  -0.03616  -0.03026  -0.02923  -0.02627

 Mulliken charges and spin densities:
               1          2
     1  O   -0.609201  -0.080708
     2  O   -0.512836   0.030405
     3  C    0.694884   0.006016
     4  H    0.043911  -0.003976
     5  O   -0.599248   0.046739
     6  O   -0.547357  -0.064406
     7  C    0.696549   0.000312
     8  H    0.045165  -0.001345
     9  O   -0.496594   0.056084
    10  O   -0.597347  -0.048071
    11  O   -0.591850   0.053441
    12  C    0.707447  -0.000640
    13  H    0.040256   0.000744
    14  O   -0.489695   0.020331
    15  O   -0.563257  -0.093961
    16  C    0.684412   0.002571
    17  H    0.053102  -0.005970
    18  Fe   1.001300   3.213847
    19  O   -0.529586   0.055817
    20  Fe   0.994009   4.222777
    21  O   -0.556869   0.107555
    22  O   -0.566129   0.103625
    23  Fe   0.988816  -4.215718
    24  O   -0.719685  -0.013544
    25  C    0.690820   0.002851
    26  H    0.047534   0.017773
    27  C    0.698838  -0.001691
    28  H    0.051041   0.016309
    29  N    0.007220   0.002583
    30  N   -0.013262  -0.001174
    31  O   -0.437517   0.571772
    32  O   -0.548998   0.035994
    33  H    0.370218   0.000045
    34  H    0.372454   0.000321
    35  O   -0.539139  -0.036649
    36  H    0.364835  -0.000420
    37  H    0.365760   0.000360
 Sum of Mulliken charges =  -0.00000   4.00000

 Dipole moment (field-independent basis, Debye):
    X=              6.8607    Y=              4.0487    Z=             -1.7994  Tot=              8.1669
 Quadrupole moment (field-independent basis, Debye-Ang):
   XX=           -172.6344   YY=           -164.1215   ZZ=           -164.1092
   XY=             -2.4448   XZ=             -5.0507   YZ=              2.8381

 Normal termination of Gaussian 16 at Tue May  2 09:16:59 2023.
