 Gaussian 16, Revision C.02,
 Gaussian 16:  ES64L-G16RevC.02  7-Dec-2021

 ----------------------------------------------------------------------
 #p freq=raman scale=0.967 guess=read geom=allcheck gen um06l int=grid=
 ultrafine scf=(xqc,intrep,maxconventionalcycle=150) pop=(hirshfeld) no
 symm
 ----------------------------------------------------------------------

 Structure from the checkpoint file:  "/scratch1/svicchi/G09-84877.pbs02/02-freq/FeFeFe-AO-2xH2O-freq.chk"
 ---------------
 FeFeFe-AO-2xH2O
 ---------------
 Charge =  0 Multiplicity =15

                          Input orientation:
 ---------------------------------------------------------------------
 Center     Atomic      Atomic             Coordinates (Angstroms)
 Number     Number       Type             X           Y           Z
 ---------------------------------------------------------------------
      1          8           0        0.901884    2.464421    1.629663
      2          8           0       -1.283903    1.934857    1.488176
      3          6           0       -0.303142    2.558835    1.956885
      4          1           0       -0.531050    3.280866    2.760225
      5          8           0        2.365350   -1.719034   -1.331416
      6          8           0        2.980154    0.446788   -1.300160
      7          6           0        3.026568   -0.730477   -1.723940
      8          1           0        3.740012   -0.921343   -2.546873
      9          8           0       -2.084369   -0.833419    1.435282
     10          8           0        2.974287    0.404510    1.581837
     11          8           0        2.356918   -1.761522    1.551008
     12          6           0        3.035877   -0.789357    1.955355
     13          1           0        3.780340   -1.012947    2.739167
     14          8           0       -1.243588    1.943741   -1.373355
     15          8           0        0.916277    2.567410   -1.249241
     16          6           0       -0.250407    2.626787   -1.706177
     17          1           0       -0.423847    3.372607   -2.502445
     18         26           0       -1.358816    0.498954    0.055400
     19          8           0       -2.034813   -0.794909   -1.393682
     20         26           0        0.891049   -1.887124    0.159596
     21          8           0       -0.501873   -2.442192   -1.328578
     22          8           0       -0.494514   -2.426038    1.549418
     23         26           0        1.803464    1.326402    0.208030
     24          8           0        0.448290   -0.025555    0.097302
     25          6           0       -1.538489   -1.884354   -1.758462
     26          1           0       -2.082002   -2.417178   -2.559488
     27          6           0       -1.579411   -1.894556    1.874570
     28          1           0       -2.166116   -2.423859    2.645731
     29          7           0       -4.469200    0.119957    0.012553
     30          7           0       -5.176147   -0.752380    0.003168
     31          8           0       -3.737701    1.048707    0.021456
     32          8           0        3.328491    2.861727   -0.124930
     33          1           0        3.923643    2.368101   -0.706982
     34          1           0        2.816905    3.424506   -0.725505
     35          8           0        1.390462   -3.987118   -0.224269
     36          1           0        2.162789   -3.858984   -0.793408
     37          1           0        0.668901   -4.185424   -0.839670
 ---------------------------------------------------------------------

 SCF Done:  E(UM06L) =  -5339.76532294     A.U. after    3 cycles

 Alpha  occ. eigenvalues -- -255.61143-255.60988-255.60982 -30.05635 -30.05471
 Alpha  occ. eigenvalues --  -30.05466 -25.83310 -25.83123 -25.83120 -25.82529
 Alpha  occ. eigenvalues --  -25.82397 -25.82385 -25.82360 -25.82164 -25.82163
 Alpha  occ. eigenvalues --  -19.07682 -19.01569 -19.01557 -18.97269 -18.97259
 Alpha  occ. eigenvalues --  -18.97258 -18.97236 -18.97142 -18.97129 -18.97122
 Alpha  occ. eigenvalues --  -18.97063 -18.97059 -18.97047 -18.96988 -18.96938
 Alpha  occ. eigenvalues --  -18.94941 -14.39560 -14.26849 -10.17202 -10.17144
 Alpha  occ. eigenvalues --  -10.16985 -10.16870 -10.16734 -10.16692  -3.62560
 Alpha  occ. eigenvalues --   -3.62456  -3.62450  -2.37811  -2.37668  -2.37652
 Alpha  occ. eigenvalues --   -2.36172  -2.36142  -2.36119  -2.35801  -2.35658
 Alpha  occ. eigenvalues --   -2.35655  -1.21962  -1.05980  -1.05748  -1.05664
 Alpha  occ. eigenvalues --   -1.05409  -1.05351  -1.05262  -1.04982  -1.03762
 Alpha  occ. eigenvalues --   -1.03695  -0.98120  -0.98051  -0.97808  -0.97694
 Alpha  occ. eigenvalues --   -0.97650  -0.97529  -0.92314  -0.59824  -0.58522
 Alpha  occ. eigenvalues --   -0.57777  -0.57539  -0.57239  -0.57163  -0.57061
 Alpha  occ. eigenvalues --   -0.53873  -0.53768  -0.53526  -0.53128  -0.48465
 Alpha  occ. eigenvalues --   -0.48248  -0.47559  -0.47075  -0.47026  -0.46802
 Alpha  occ. eigenvalues --   -0.46512  -0.46465  -0.46189  -0.45830  -0.45677
 Alpha  occ. eigenvalues --   -0.45477  -0.44610  -0.43867  -0.43312  -0.42780
 Alpha  occ. eigenvalues --   -0.41789  -0.41697  -0.41011  -0.40845  -0.39984
 Alpha  occ. eigenvalues --   -0.39833  -0.39702  -0.38094  -0.37186  -0.36881
 Alpha  occ. eigenvalues --   -0.36469  -0.36322  -0.36046  -0.35973  -0.35554
 Alpha  occ. eigenvalues --   -0.35356  -0.35186  -0.35071  -0.33775  -0.33014
 Alpha  occ. eigenvalues --   -0.32971  -0.32674  -0.32136  -0.32067  -0.31442
 Alpha  occ. eigenvalues --   -0.30891  -0.28876  -0.28507  -0.28417  -0.28301
 Alpha  occ. eigenvalues --   -0.28057  -0.27980  -0.27769  -0.27637  -0.27261
 Alpha  occ. eigenvalues --   -0.27033  -0.26762  -0.26656  -0.26142  -0.24419
 Alpha  occ. eigenvalues --   -0.23707  -0.21796  -0.21620  -0.21408  -0.21342
 Alpha virt. eigenvalues --   -0.04802  -0.04304  -0.03149  -0.02549  -0.02384
 Alpha virt. eigenvalues --   -0.02134  -0.01229  -0.01097   0.02201   0.02987
 Alpha virt. eigenvalues --    0.05026   0.07396   0.07856   0.08464   0.08564

  Beta  occ. eigenvalues -- -255.60973-255.60823-255.60817 -29.94409 -29.94189
  Beta  occ. eigenvalues --  -29.94180 -25.74790 -25.74507 -25.74501 -25.74418
  Beta  occ. eigenvalues --  -25.74347 -25.74252 -25.74241 -25.74169 -25.74162
  Beta  occ. eigenvalues --  -19.07643 -19.01411 -19.01401 -18.97015 -18.97007
  Beta  occ. eigenvalues --  -18.96988 -18.96986 -18.96875 -18.96854 -18.96832
  Beta  occ. eigenvalues --  -18.96757 -18.96734 -18.96725 -18.96680 -18.96624
  Beta  occ. eigenvalues --  -18.93281 -14.39562 -14.26826 -10.17228 -10.17168
  Beta  occ. eigenvalues --  -10.17009 -10.16895 -10.16765 -10.16718  -3.38416
  Beta  occ. eigenvalues --   -3.38101  -3.38089  -2.13328  -2.12871  -2.12842
  Beta  occ. eigenvalues --   -2.12671  -2.12653  -2.12493  -2.12473  -2.12423
  Beta  occ. eigenvalues --   -2.12412  -1.21893  -1.05466  -1.05246  -1.05137
  Beta  occ. eigenvalues --   -1.04920  -1.04844  -1.04754  -1.04666  -1.03437
  Beta  occ. eigenvalues --   -1.03369  -0.97477  -0.97409  -0.97161  -0.96996
  Beta  occ. eigenvalues --   -0.96906  -0.96778  -0.87824  -0.59617  -0.57964
  Beta  occ. eigenvalues --   -0.57348  -0.57077  -0.56691  -0.56495  -0.56375
  Beta  occ. eigenvalues --   -0.53638  -0.53537  -0.53333  -0.53095  -0.47471
  Beta  occ. eigenvalues --   -0.47247  -0.46471  -0.45959  -0.45838  -0.45673
  Beta  occ. eigenvalues --   -0.45448  -0.45321  -0.44978  -0.44924  -0.44794
  Beta  occ. eigenvalues --   -0.44592  -0.44448  -0.42014  -0.41221  -0.41097
  Beta  occ. eigenvalues --   -0.40739  -0.40726  -0.40196  -0.39438  -0.39307
  Beta  occ. eigenvalues --   -0.35154  -0.35043  -0.33533  -0.33184  -0.32729
  Beta  occ. eigenvalues --   -0.32125  -0.30539  -0.30480  -0.30373  -0.29463
  Beta  occ. eigenvalues --   -0.28471  -0.28415  -0.28327  -0.28193  -0.28130
  Beta  occ. eigenvalues --   -0.27940  -0.27831  -0.27406  -0.27059  -0.27009
  Beta  occ. eigenvalues --   -0.26784  -0.26203  -0.26189  -0.26081  -0.24603
  Beta  occ. eigenvalues --   -0.16541
  Beta virt. eigenvalues --   -0.14744  -0.14719  -0.14657  -0.14580  -0.14291
  Beta virt. eigenvalues --   -0.13869  -0.13385  -0.10995  -0.10023  -0.08352
  Beta virt. eigenvalues --   -0.07583  -0.07316  -0.07305  -0.06715  -0.04269

 Mulliken charges and spin densities:
               1          2
     1  O   -0.564047   0.080893
     2  O   -0.560869   0.078260
     3  C    0.689821  -0.014353
     4  H    0.038570   0.018559
     5  O   -0.619924   0.063537
     6  O   -0.619629   0.063146
     7  C    0.714561  -0.012715
     8  H    0.027627   0.017156
     9  O   -0.585793   0.075403
    10  O   -0.564079   0.083891
    11  O   -0.564383   0.084531
    12  C    0.687406  -0.019027
    13  H    0.038997   0.019082
    14  O   -0.558305   0.070160
    15  O   -0.631057   0.063833
    16  C    0.705093  -0.011870
    17  H    0.032970   0.017478
    18  Fe   1.004884   4.156068
    19  O   -0.579765   0.068153
    20  Fe   1.008657   4.161957
    21  O   -0.628368   0.061188
    22  O   -0.563171   0.077916
    23  Fe   1.010423   4.163976
    24  O   -0.838927   0.546204
    25  C    0.706840  -0.011932
    26  H    0.033808   0.017081
    27  C    0.693693  -0.014479
    28  H    0.039477   0.018108
    29  N    0.612315   0.000324
    30  N   -0.082267   0.012953
    31  O   -0.442211  -0.004382
    32  O   -0.560771   0.033903
    33  H    0.369202   0.000455
    34  H    0.370602   0.000266
    35  O   -0.560300   0.033613
    36  H    0.369117   0.000424
    37  H    0.369802   0.000241
 Sum of Mulliken charges =  -0.00000  14.00000

 Dipole moment (field-independent basis, Debye):
    X=              1.2032    Y=             -0.3507    Z=             -2.8661  Tot=              3.1281
 Quadrupole moment (field-independent basis, Debye-Ang):
   XX=           -164.3538   YY=           -164.2568   ZZ=           -170.1977
   XY=             -0.0112   XZ=             -8.7238   YZ=              2.2250

  Exact polarizability:     284.221      12.512     271.720       1.969       0.763     195.111
 Approx polarizability:    1036.543      41.959    1125.846      37.374       0.502     319.341

                      1                      2                      3
                      A                      A                      A
 Frequencies --     28.6376                40.7440                41.4282
 Red. masses --     11.8250                10.2713                11.6251
 Frc consts  --      0.0057                 0.0100                 0.0118
 IR Inten    --      0.0280                 0.0113                 0.2125
 Raman Activ --      0.7290                 0.8895                 1.0582

                      4                      5                      6
                      A                      A                      A
 Frequencies --     44.4501                48.6745                83.4787
 Red. masses --      9.9741                10.1453                 8.4803
 Frc consts  --      0.0116                 0.0142                 0.0348
 IR Inten    --      0.2773                 0.1234                 2.5958
 Raman Activ --      0.7764                 0.2880                 0.7105

                      7                      8                      9
                      A                      A                      A
 Frequencies --     86.1049                87.3826                91.0309
 Red. masses --      9.1353                 6.0124                 6.8407
 Frc consts  --      0.0399                 0.0270                 0.0334
 IR Inten    --      1.5891                 1.5209                 3.2882
 Raman Activ --      0.8447                 0.2728                 2.3417

                     10                     11                     12
                      A                      A                      A
 Frequencies --     95.4193                98.0155               103.3791
 Red. masses --      6.3672                 6.5772                 8.0772
 Frc consts  --      0.0342                 0.0372                 0.0509
 IR Inten    --      2.2434                 0.5232                 0.1899
 Raman Activ --      1.2847                 2.2220                 1.8000

                     13                     14                     15
                      A                      A                      A
 Frequencies --    105.2472               113.1712               118.8331
 Red. masses --      7.8922                 5.2923                 4.5032
 Frc consts  --      0.0515                 0.0399                 0.0375
 IR Inten    --      1.7835                 4.5378                 0.1110
 Raman Activ --      1.2655                 0.2898                15.2834

                     16                     17                     18
                      A                      A                      A
 Frequencies --    124.6531               132.8320               137.7707
 Red. masses --      6.4997                 7.2220                 8.4288
 Frc consts  --      0.0595                 0.0751                 0.0943
 IR Inten    --      2.4012                 2.2590                 0.9078
 Raman Activ --      0.0293                 0.2922                 0.4798

                     19                     20                     21
                      A                      A                      A
 Frequencies --    138.5100               142.9443               157.0624
 Red. masses --      7.3013                 7.8465                 6.9448
 Frc consts  --      0.0825                 0.0945                 0.1009
 IR Inten    --      2.7856                 4.2242                 2.0984
 Raman Activ --      0.8011                 0.4544                 1.8137

                     22                     23                     24
                      A                      A                      A
 Frequencies --    158.8016               162.4516               171.7395
 Red. masses --      7.6929                 7.0299                 2.4496
 Frc consts  --      0.1143                 0.1093                 0.0426
 IR Inten    --      9.7719                 3.5427                 7.1228
 Raman Activ --      2.3493                 8.7649                 0.8567

                     25                     26                     27
                      A                      A                      A
 Frequencies --    176.4694               181.2268               189.0177
 Red. masses --      3.1538                 2.0925                 4.0326
 Frc consts  --      0.0579                 0.0405                 0.0849
 IR Inten    --     10.7799                10.8573                15.6276
 Raman Activ --      2.6158                 1.9866                 0.4194

                     28                     29                     30
                      A                      A                      A
 Frequencies --    192.8815               195.5020               211.6468
 Red. masses --      5.0514                 8.3437                10.3765
 Frc consts  --      0.1107                 0.1879                 0.2739
 IR Inten    --     42.3855                43.1688                20.9730
 Raman Activ --      1.8081                 1.0814                 0.1522

                     31                     32                     33
                      A                      A                      A
 Frequencies --    215.5117               216.9939               242.5885
 Red. masses --      4.5884                 6.4062                 8.4741
 Frc consts  --      0.1256                 0.1777                 0.2938
 IR Inten    --     16.9932                 3.5186                 4.9404
 Raman Activ --      0.3946                 1.0403                 2.4492

                     34                     35                     36
                      A                      A                      A
 Frequencies --    247.9890               250.1737               263.5071
 Red. masses --      2.9666                 2.8643                 9.1401
 Frc consts  --      0.1075                 0.1056                 0.3739
 IR Inten    --      0.9413                 0.6103                 2.3633
 Raman Activ --      0.9319                 0.7083                 0.6076

                     37                     38                     39
                      A                      A                      A
 Frequencies --    264.9012               277.9548               286.6468
 Red. masses --      9.0874                 9.3052                 7.9810
 Frc consts  --      0.3757                 0.4236                 0.3864
 IR Inten    --      4.0586                 5.1581                 0.1019
 Raman Activ --      1.0257                 1.3667                 0.2951

                     40                     41                     42
                      A                      A                      A
 Frequencies --    286.9587               306.0768               307.1900
 Red. masses --      5.2257                 3.8095                 3.3944
 Frc consts  --      0.2535                 0.2103                 0.1887
 IR Inten    --      0.5774                15.0632                14.8759
 Raman Activ --     13.3970                 2.5699                 2.3832

                     43                     44                     45
                      A                      A                      A
 Frequencies --    309.2299               321.7932               340.4373
 Red. masses --      3.2280                 5.5121                 9.1551
 Frc consts  --      0.1819                 0.3363                 0.6252
 IR Inten    --     19.9209                14.5718                89.3246
 Raman Activ --      3.3215                24.5965                 0.3419

                     46                     47                     48
                      A                      A                      A
 Frequencies --    343.7373               348.5414               355.3959
 Red. masses --      8.6707                 9.8557                10.3541
 Frc consts  --      0.6036                 0.7054                 0.7705
 IR Inten    --     55.4586                 3.0070                29.7548
 Raman Activ --      1.5586                 4.7521                 5.6558

                     49                     50                     51
                      A                      A                      A
 Frequencies --    357.4315               366.1301               376.7209
 Red. masses --     10.0656                12.8582                16.9074
 Frc consts  --      0.7577                 1.0156                 1.4137
 IR Inten    --      9.1372               110.7184                10.3860
 Raman Activ --      3.6631                12.0343                 4.8948

                     52                     53                     54
                      A                      A                      A
 Frequencies --    382.9862               383.2434               580.8910
 Red. masses --     12.1082                14.4163                16.0285
 Frc consts  --      1.0464                 1.2475                 3.1866
 IR Inten    --    242.1058               103.2307                51.3671
 Raman Activ --      1.2153                13.8411                 9.9893

                     55                     56                     57
                      A                      A                      A
 Frequencies --    597.4206               612.8227               621.8686
 Red. masses --     16.3386                 1.1626                13.6765
 Frc consts  --      3.4358                 0.2572                 3.1162
 IR Inten    --     41.2328               501.9386                 4.7306
 Raman Activ --      5.9716                 2.5192                 0.4290

                     58                     59                     60
                      A                      A                      A
 Frequencies --    632.6520               636.2092               657.3952
 Red. masses --      5.5100                 1.3447                 1.1206
 Frc consts  --      1.2994                 0.3207                 0.2853
 IR Inten    --     83.2699               208.8145                79.8626
 Raman Activ --      0.7064                 2.6928                 2.1623

                     61                     62                     63
                      A                      A                      A
 Frequencies --    669.7978               742.8568               743.4373
 Red. masses --      1.1303                11.2144                11.2129
 Frc consts  --      0.2988                 3.6462                 3.6514
 IR Inten    --    201.2135                 7.9326                 4.3098
 Raman Activ --      1.5999                 5.9663                 4.5081

                     64                     65                     66
                      A                      A                      A
 Frequencies --    748.1405               759.6970               761.3175
 Red. masses --     11.2414                10.1412                 9.9835
 Frc consts  --      3.7071                 3.4484                 3.4093
 IR Inten    --     59.3232                48.9268                 8.4569
 Raman Activ --      0.6053                 7.7849                 4.4584

                     67                     68                     69
                      A                      A                      A
 Frequencies --    765.8291              1044.7429              1045.8124
 Red. masses --      9.7771                 1.6874                 1.6913
 Frc consts  --      3.3785                 1.0851                 1.0899
 IR Inten    --     24.4145                 0.0044                 0.0004
 Raman Activ --      2.0281                 1.0655                 0.5263

                     70                     71                     72
                      A                      A                      A
 Frequencies --   1046.6622              1048.4076              1048.9090
 Red. masses --      1.6923                 1.6938                 1.6987
 Frc consts  --      1.0923                 1.0969                 1.1011
 IR Inten    --      0.0029                 0.0374                 0.0340
 Raman Activ --      1.7082                 1.9167                 2.2376

                     73                     74                     75
                      A                      A                      A
 Frequencies --   1049.5261              1347.5595              1392.8682
 Red. masses --      1.7039                15.0601                 6.5290
 Frc consts  --      1.1058                16.1129                 7.4630
 IR Inten    --      0.0761                81.7475                28.0517
 Raman Activ --      4.2841                40.1711                12.7692

                     76                     77                     78
                      A                      A                      A
 Frequencies --   1393.2012              1395.9544              1396.8390
 Red. masses --      7.4423                 2.8352                 3.1181
 Frc consts  --      8.5111                 3.2552                 3.5846
 IR Inten    --      5.6936               176.6345               220.0718
 Raman Activ --     21.6977                10.3036                 7.1669

                     79                     80                     81
                      A                      A                      A
 Frequencies --   1397.1861              1397.6213              1398.4257
 Red. masses --      2.8463                 1.3478                 1.1661
 Frc consts  --      3.2738                 1.5511                 1.3436
 IR Inten    --    181.0854                59.6290                27.4029
 Raman Activ --     13.9534                 3.5287                 6.7291

                     82                     83                     84
                      A                      A                      A
 Frequencies --   1399.3255              1400.4621              1401.5254
 Red. masses --      1.4017                 1.4542                 1.5644
 Frc consts  --      1.6172                 1.6805                 1.8105
 IR Inten    --     59.3091                56.2854                59.4551
 Raman Activ --      8.4336                10.8162                12.5004

                     85                     86                     87
                      A                      A                      A
 Frequencies --   1403.0956              1405.8081              1595.5704
 Red. masses --      1.1056                 5.6050                10.8756
 Frc consts  --      1.2824                 6.5265                16.3130
 IR Inten    --     18.2919                 5.8598                 2.0643
 Raman Activ --      7.2382                53.4827                 0.2401

                     88                     89                     90
                      A                      A                      A
 Frequencies --   1609.8063              1613.2195              1620.2482
 Red. masses --     10.5605                11.1866                10.9297
 Frc consts  --     16.1244                17.1529                16.9053
 IR Inten    --     65.4552                48.5972                16.1607
 Raman Activ --     14.0411                15.1849                 0.9741

                     91                     92                     93
                      A                      A                      A
 Frequencies --   1635.6104              1637.8533              1660.8937
 Red. masses --     10.7762                10.5343                 1.0898
 Frc consts  --     16.9854                16.6497                 1.7713
 IR Inten    --    425.1088               412.4050                23.9847
 Raman Activ --      2.6044                 2.5096                 1.1219

                     94                     95                     96
                      A                      A                      A
 Frequencies --   1661.2947              2392.2657              2949.0490
 Red. masses --      1.0907                14.0926                 1.0827
 Frc consts  --      1.7736                47.5181                 5.5479
 IR Inten    --     84.6079               404.0932               133.3884
 Raman Activ --      2.4497                27.0447               317.5712

                     97                     98                     99
                      A                      A                      A
 Frequencies --   2959.0616              2963.4648              2970.5721
 Red. masses --      1.0832                 1.0833                 1.0835
 Frc consts  --      5.5879                 5.6052                 5.6331
 IR Inten    --    118.4841               148.5305                99.4189
 Raman Activ --    284.7108               325.4526               273.1077

                    100                    101                    102
                      A                      A                      A
 Frequencies --   2972.6629              2974.6624              3704.7563
 Red. masses --      1.0834                 1.0836                 1.0454
 Frc consts  --      5.6409                 5.6495                 8.4537
 IR Inten    --    112.1689               116.0078                28.0106
 Raman Activ --    325.6086               528.9269               114.5059

                    103                    104                    105
                      A                      A                      A
 Frequencies --   3707.1399              3798.6019              3801.6858
 Red. masses --      1.0455                 1.0805                 1.0803
 Frc consts  --      8.4652                 9.1858                 9.1989
 IR Inten    --     33.6455                75.3441               111.6138
 Raman Activ --    128.0682                 5.1953                 8.4221

 - Thermochemistry -
 -------------------
 Temperature   298.150 Kelvin.  Pressure   1.00000 Atm.
 Thermochemistry will use frequencies scaled by 0.9670.

 Molecular mass:   533.80785 amu.
 Principal axes and moments of inertia in atomic units:
                           1         2         3
     Eigenvalues --  8519.08202********************
           X            0.99713  -0.07490  -0.01122
           Y            0.07476   0.99712  -0.01287
           Z            0.01215   0.01199   0.99985
 This molecule is an asymmetric top.
 Rotational symmetry number  1.
 Warning -- assumption of classical behavior for rotation
           may cause significant error
 Rotational temperatures (Kelvin)      0.01017     0.00776     0.00585
 Rotational constants (GHZ):           0.21185     0.16165     0.12198
 Zero-point vibrational energy     537237.8 (Joules/Mol)
                                  128.40292 (Kcal/Mol)
 Warning -- explicit consideration of  59 degrees of freedom as
           vibrations may cause significant error
 Vibrational temperatures:     39.84    56.69    57.64    61.84    67.72
          (Kelvin)            116.14   119.80   121.58   126.65   132.76
                              136.37   143.83   146.43   157.45   165.33
                              173.43   184.81   191.68   192.71   198.88
                              218.52   220.94   226.02   238.94   245.52
                              252.14   262.98   268.36   272.00   294.46
                              299.84   301.90   337.51   345.03   348.07
                              366.62   368.56   386.72   398.81   399.24
                              425.84   427.39   430.23   447.71   473.65
                              478.24   484.92   494.46   497.29   509.40
                              524.13   532.85   533.21   808.19   831.19
                              852.62   865.20   880.21   885.16   914.63
                              931.89  1033.53  1034.34  1040.89  1056.96
                             1059.22  1065.50  1453.55  1455.04  1456.22
                             1458.65  1459.34  1460.20  1874.86  1937.89
                             1938.36  1942.19  1943.42  1943.90  1944.51
                             1945.63  1946.88  1948.46  1949.94  1952.12
                             1955.90  2219.91  2239.72  2244.47  2254.25
                             2275.62  2278.74  2310.80  2311.35  3328.35
                             4103.00  4116.93  4123.06  4132.95  4135.86
                             4138.64  5154.42  5157.73  5284.98  5289.28

 Zero-point correction=                           0.204623 (Hartree/Particle)
 Thermal correction to Energy=                    0.240690
 Thermal correction to Enthalpy=                  0.241634
 Thermal correction to Gibbs Free Energy=         0.133991
 Sum of electronic and zero-point Energies=          -5339.560700
 Sum of electronic and thermal Energies=             -5339.524633
 Sum of electronic and thermal Enthalpies=           -5339.523689
 Sum of electronic and thermal Free Energies=        -5339.631332

                     E (Thermal)             CV                S
                      KCal/Mol        Cal/Mol-Kelvin    Cal/Mol-Kelvin
 Total                  151.035            119.380            226.554
 Electronic               0.000              0.000              5.381
 Translational            0.889              2.981             44.710
 Rotational               0.889              2.981             35.597
 Vibrational            149.257            113.418            140.866
 Vibration     1          0.593              1.984              5.988
 Vibration     2          0.594              1.981              5.289
 Vibration     3          0.594              1.981              5.256
 Vibration     4          0.595              1.980              5.117
 Vibration     5          0.595              1.979              4.937
 Vibration     6          0.600              1.962              3.873
 Vibration     7          0.600              1.961              3.812
 Vibration     8          0.601              1.960              3.784
 Vibration     9          0.601              1.958              3.703
 Vibration    10          0.602              1.955              3.611
 Vibration    11          0.603              1.953              3.559
 Vibration    12          0.604              1.949              3.455
 Vibration    13          0.604              1.948              3.420
 Vibration    14          0.606              1.942              3.279
 Vibration    15          0.608              1.937              3.184
 Vibration    16          0.609              1.932              3.092
 Vibration    17          0.611              1.925              2.969
 Vibration    18          0.613              1.920              2.899
 Vibration    19          0.613              1.919              2.889
 Vibration    20          0.614              1.915              2.828
 Vibration    21          0.619              1.901              2.649
 Vibration    22          0.619              1.899              2.628
 Vibration    23          0.621              1.895              2.585
 Vibration    24          0.624              1.884              2.479
 Vibration    25          0.626              1.879              2.428
 Vibration    26          0.627              1.873              2.378
 Vibration    27          0.630              1.863              2.300
 Vibration    28          0.632              1.858              2.262
 Vibration    29          0.633              1.855              2.237
 Vibration    30          0.640              1.833              2.091
 Vibration    31          0.642              1.828              2.058
 Vibration    32          0.642              1.826              2.045
 Vibration    33          0.654              1.788              1.844
 Vibration    34          0.657              1.780              1.804
 Vibration    35          0.658              1.776              1.789
 Vibration    36          0.665              1.755              1.697
 Vibration    37          0.666              1.752              1.688
 Vibration    38          0.673              1.731              1.604
 Vibration    39          0.678              1.716              1.551
 Vibration    40          0.678              1.715              1.549
 Vibration    41          0.690              1.681              1.440
 Vibration    42          0.691              1.679              1.433
 Vibration    43          0.692              1.676              1.422
 Vibration    44          0.700              1.652              1.356
 Vibration    45          0.712              1.617              1.264
 Vibration    46          0.714              1.611              1.248
 Vibration    47          0.718              1.602              1.226
 Vibration    48          0.722              1.588              1.195
 Vibration    49          0.724              1.584              1.186
 Vibration    50          0.730              1.567              1.148
 Vibration    51          0.738              1.546              1.104
 Vibration    52          0.742              1.533              1.078
 Vibration    53          0.743              1.533              1.077
 Vibration    54          0.917              1.114              0.520
 Vibration    55          0.934              1.079              0.490
 Vibration    56          0.950              1.048              0.463
 Vibration    57          0.960              1.029              0.447
 Vibration    58          0.971              1.007              0.430
 Vibration    59          0.975              1.000              0.424

 Normal termination of Gaussian 16 at Thu Feb  2 13:39:10 2023.
