 Gaussian 16, Revision C.02,
 Gaussian 16:  ES64L-G16RevC.02  7-Dec-2021

 ----------------------------------------------------------------------
 #p opt=(cartesian,maxcycle=500) gen um06l int=grid=ultrafine scf=(xqc,
 intrep,maxconventionalcycle=150) pop=(hirshfeld) nosymm
 ----------------------------------------------------------------------

 ---------------
 FeFeFe-AO-2xH2O
 ---------------
 Symbolic Z-matrix:
 Charge =  0 Multiplicity =15

 SCF Done:  E(UM06L) =  -5339.76532215     A.U. after   32 cycles
 SCF Done:  E(UM06L) =  -5339.75776272     A.U. after   22 cycles
 SCF Done:  E(UM06L) =  -5339.76523282     A.U. after   19 cycles
 SCF Done:  E(UM06L) =  -5339.76532216     A.U. after    7 cycles
 SCF Done:  E(UM06L) =  -5339.76523316     A.U. after   21 cycles
 SCF Done:  E(UM06L) =  -5339.76526023     A.U. after   19 cycles
 SCF Done:  E(UM06L) =  -5339.76532216     A.U. after    7 cycles
 SCF Done:  E(UM06L) =  -5339.76531918     A.U. after   19 cycles
 SCF Done:  E(UM06L) =  -5339.76532244     A.U. after   10 cycles
 SCF Done:  E(UM06L) =  -5339.76532260     A.U. after    9 cycles
 SCF Done:  E(UM06L) =  -5339.76532270     A.U. after   16 cycles
 SCF Done:  E(UM06L) =  -5339.76532275     A.U. after    9 cycles
 SCF Done:  E(UM06L) =  -5339.76532278     A.U. after   11 cycles
 SCF Done:  E(UM06L) =  -5339.76532282     A.U. after    9 cycles
 SCF Done:  E(UM06L) =  -5339.76532286     A.U. after   13 cycles
 SCF Done:  E(UM06L) =  -5339.76532290     A.U. after   11 cycles
 SCF Done:  E(UM06L) =  -5339.76532294     A.U. after   13 cycles
 Optimization completed.
    -- Stationary point found.

                          Input orientation:
 ---------------------------------------------------------------------
 Center     Atomic      Atomic             Coordinates (Angstroms)
 Number     Number       Type             X           Y           Z
 ---------------------------------------------------------------------
      1          8           0        0.901884    2.464421    1.629663
      2          8           0       -1.283903    1.934857    1.488176
      3          6           0       -0.303142    2.558835    1.956885
      4          1           0       -0.531050    3.280866    2.760225
      5          8           0        2.365350   -1.719034   -1.331416
      6          8           0        2.980154    0.446788   -1.300160
      7          6           0        3.026568   -0.730477   -1.723940
      8          1           0        3.740012   -0.921343   -2.546873
      9          8           0       -2.084369   -0.833419    1.435282
     10          8           0        2.974287    0.404510    1.581837
     11          8           0        2.356918   -1.761522    1.551008
     12          6           0        3.035877   -0.789357    1.955355
     13          1           0        3.780340   -1.012947    2.739167
     14          8           0       -1.243588    1.943741   -1.373355
     15          8           0        0.916277    2.567410   -1.249241
     16          6           0       -0.250407    2.626787   -1.706177
     17          1           0       -0.423847    3.372607   -2.502445
     18         26           0       -1.358816    0.498954    0.055400
     19          8           0       -2.034813   -0.794909   -1.393682
     20         26           0        0.891049   -1.887124    0.159596
     21          8           0       -0.501873   -2.442192   -1.328578
     22          8           0       -0.494514   -2.426038    1.549418
     23         26           0        1.803464    1.326402    0.208030
     24          8           0        0.448290   -0.025555    0.097302
     25          6           0       -1.538489   -1.884354   -1.758462
     26          1           0       -2.082002   -2.417178   -2.559488
     27          6           0       -1.579411   -1.894556    1.874570
     28          1           0       -2.166116   -2.423859    2.645731
     29          7           0       -4.469200    0.119957    0.012553
     30          7           0       -5.176147   -0.752380    0.003168
     31          8           0       -3.737701    1.048707    0.021456
     32          8           0        3.328491    2.861727   -0.124930
     33          1           0        3.923643    2.368101   -0.706982
     34          1           0        2.816905    3.424506   -0.725505
     35          8           0        1.390462   -3.987118   -0.224269
     36          1           0        2.162789   -3.858984   -0.793408
     37          1           0        0.668901   -4.185424   -0.839670
 ---------------------------------------------------------------------

 Alpha  occ. eigenvalues -- -255.61143-255.60988-255.60982 -30.05635 -30.05471
 Alpha  occ. eigenvalues --  -30.05466 -25.83310 -25.83123 -25.83120 -25.82529
 Alpha  occ. eigenvalues --  -25.82397 -25.82385 -25.82360 -25.82164 -25.82163
 Alpha  occ. eigenvalues --  -19.07682 -19.01569 -19.01557 -18.97269 -18.97259
 Alpha  occ. eigenvalues --  -18.97258 -18.97236 -18.97142 -18.97129 -18.97122
 Alpha  occ. eigenvalues --  -18.97063 -18.97059 -18.97047 -18.96988 -18.96938
 Alpha  occ. eigenvalues --  -18.94941 -14.39560 -14.26849 -10.17202 -10.17144
 Alpha  occ. eigenvalues --  -10.16985 -10.16870 -10.16734 -10.16692  -3.62560
 Alpha  occ. eigenvalues --   -3.62456  -3.62450  -2.37811  -2.37668  -2.37652
 Alpha  occ. eigenvalues --   -2.36172  -2.36142  -2.36119  -2.35801  -2.35658
 Alpha  occ. eigenvalues --   -2.35655  -1.21962  -1.05980  -1.05748  -1.05664
 Alpha  occ. eigenvalues --   -1.05409  -1.05351  -1.05262  -1.04982  -1.03762
 Alpha  occ. eigenvalues --   -1.03695  -0.98120  -0.98051  -0.97808  -0.97694
 Alpha  occ. eigenvalues --   -0.97650  -0.97529  -0.92314  -0.59824  -0.58522
 Alpha  occ. eigenvalues --   -0.57777  -0.57539  -0.57239  -0.57163  -0.57061
 Alpha  occ. eigenvalues --   -0.53873  -0.53768  -0.53526  -0.53128  -0.48465
 Alpha  occ. eigenvalues --   -0.48248  -0.47559  -0.47075  -0.47026  -0.46802
 Alpha  occ. eigenvalues --   -0.46512  -0.46465  -0.46189  -0.45830  -0.45677
 Alpha  occ. eigenvalues --   -0.45477  -0.44610  -0.43867  -0.43312  -0.42780
 Alpha  occ. eigenvalues --   -0.41789  -0.41697  -0.41011  -0.40845  -0.39984
 Alpha  occ. eigenvalues --   -0.39833  -0.39702  -0.38094  -0.37186  -0.36881
 Alpha  occ. eigenvalues --   -0.36469  -0.36322  -0.36046  -0.35973  -0.35554
 Alpha  occ. eigenvalues --   -0.35356  -0.35186  -0.35071  -0.33775  -0.33014
 Alpha  occ. eigenvalues --   -0.32971  -0.32674  -0.32136  -0.32067  -0.31442
 Alpha  occ. eigenvalues --   -0.30891  -0.28876  -0.28507  -0.28417  -0.28301
 Alpha  occ. eigenvalues --   -0.28057  -0.27980  -0.27769  -0.27637  -0.27261
 Alpha  occ. eigenvalues --   -0.27033  -0.26762  -0.26656  -0.26142  -0.24419
 Alpha  occ. eigenvalues --   -0.23707  -0.21796  -0.21620  -0.21408  -0.21342
 Alpha virt. eigenvalues --   -0.04802  -0.04304  -0.03149  -0.02549  -0.02384
 Alpha virt. eigenvalues --   -0.02134  -0.01229  -0.01097   0.02201   0.02987
 Alpha virt. eigenvalues --    0.05026   0.07396   0.07856   0.08464   0.08564

  Beta  occ. eigenvalues -- -255.60973-255.60823-255.60817 -29.94409 -29.94189
  Beta  occ. eigenvalues --  -29.94180 -25.74790 -25.74507 -25.74501 -25.74418
  Beta  occ. eigenvalues --  -25.74347 -25.74253 -25.74241 -25.74169 -25.74162
  Beta  occ. eigenvalues --  -19.07643 -19.01411 -19.01401 -18.97015 -18.97007
  Beta  occ. eigenvalues --  -18.96988 -18.96986 -18.96875 -18.96854 -18.96832
  Beta  occ. eigenvalues --  -18.96757 -18.96734 -18.96725 -18.96680 -18.96624
  Beta  occ. eigenvalues --  -18.93281 -14.39562 -14.26826 -10.17228 -10.17168
  Beta  occ. eigenvalues --  -10.17009 -10.16895 -10.16765 -10.16718  -3.38416
  Beta  occ. eigenvalues --   -3.38101  -3.38089  -2.13329  -2.12871  -2.12842
  Beta  occ. eigenvalues --   -2.12671  -2.12653  -2.12493  -2.12473  -2.12423
  Beta  occ. eigenvalues --   -2.12412  -1.21893  -1.05466  -1.05246  -1.05137
  Beta  occ. eigenvalues --   -1.04920  -1.04844  -1.04754  -1.04666  -1.03437
  Beta  occ. eigenvalues --   -1.03369  -0.97477  -0.97409  -0.97161  -0.96996
  Beta  occ. eigenvalues --   -0.96906  -0.96778  -0.87824  -0.59617  -0.57964
  Beta  occ. eigenvalues --   -0.57348  -0.57077  -0.56691  -0.56495  -0.56375
  Beta  occ. eigenvalues --   -0.53638  -0.53537  -0.53333  -0.53095  -0.47471
  Beta  occ. eigenvalues --   -0.47247  -0.46471  -0.45959  -0.45838  -0.45673
  Beta  occ. eigenvalues --   -0.45448  -0.45321  -0.44978  -0.44924  -0.44794
  Beta  occ. eigenvalues --   -0.44592  -0.44448  -0.42014  -0.41221  -0.41097
  Beta  occ. eigenvalues --   -0.40739  -0.40726  -0.40196  -0.39438  -0.39307
  Beta  occ. eigenvalues --   -0.35155  -0.35043  -0.33533  -0.33184  -0.32729
  Beta  occ. eigenvalues --   -0.32125  -0.30539  -0.30480  -0.30373  -0.29463
  Beta  occ. eigenvalues --   -0.28471  -0.28415  -0.28327  -0.28193  -0.28130
  Beta  occ. eigenvalues --   -0.27940  -0.27831  -0.27406  -0.27059  -0.27009
  Beta  occ. eigenvalues --   -0.26784  -0.26203  -0.26189  -0.26081  -0.24603
  Beta  occ. eigenvalues --   -0.16541
  Beta virt. eigenvalues --   -0.14744  -0.14719  -0.14657  -0.14580  -0.14291
  Beta virt. eigenvalues --   -0.13869  -0.13385  -0.10995  -0.10023  -0.08352
  Beta virt. eigenvalues --   -0.07583  -0.07316  -0.07305  -0.06715  -0.04269

 Mulliken charges and spin densities:
               1          2
     1  O   -0.564047   0.080893
     2  O   -0.560869   0.078260
     3  C    0.689821  -0.014353
     4  H    0.038570   0.018559
     5  O   -0.619924   0.063537
     6  O   -0.619629   0.063146
     7  C    0.714561  -0.012715
     8  H    0.027627   0.017156
     9  O   -0.585793   0.075403
    10  O   -0.564079   0.083891
    11  O   -0.564383   0.084531
    12  C    0.687406  -0.019027
    13  H    0.038997   0.019082
    14  O   -0.558305   0.070160
    15  O   -0.631057   0.063833
    16  C    0.705093  -0.011870
    17  H    0.032970   0.017478
    18  Fe   1.004883   4.156068
    19  O   -0.579765   0.068153
    20  Fe   1.008657   4.161957
    21  O   -0.628368   0.061188
    22  O   -0.563171   0.077917
    23  Fe   1.010422   4.163975
    24  O   -0.838926   0.546204
    25  C    0.706840  -0.011932
    26  H    0.033808   0.017081
    27  C    0.693693  -0.014480
    28  H    0.039477   0.018108
    29  N    0.612315   0.000324
    30  N   -0.082267   0.012953
    31  O   -0.442210  -0.004382
    32  O   -0.560771   0.033903
    33  H    0.369202   0.000455
    34  H    0.370602   0.000266
    35  O   -0.560300   0.033613
    36  H    0.369117   0.000424
    37  H    0.369802   0.000241
 Sum of Mulliken charges =  -0.00000  14.00000

 Dipole moment (field-independent basis, Debye):
    X=              1.2032    Y=             -0.3507    Z=             -2.8661  Tot=              3.1281
 Quadrupole moment (field-independent basis, Debye-Ang):
   XX=           -164.3538   YY=           -164.2568   ZZ=           -170.1977
   XY=             -0.0112   XZ=             -8.7238   YZ=              2.2250

 Normal termination of Gaussian 16 at Wed Feb  1 13:34:19 2023.
