 Gaussian 16, Revision C.02,
 Gaussian 16:  ES64L-G16RevC.02  7-Dec-2021

 ----------------------------------------------------------------------
 # SP Geom=AllCheckpoint um06l/Def2TZVP int=grid=ultrafine scf=(xqc,int
 rep,maxconventionalcycle=1000) pop=(CM5) nosymm guess=read
 ----------------------------------------------------------------------

 Structure from the checkpoint file:  "/scratch1/svicchi/G09-397431.pbs02/00-opt/FeFeFe-B-1xH2O-broken-V03-opt.chk"
 --------------
 FeFeFe-B-0xH2O
 --------------
 Charge =  0 Multiplicity = 5

                          Input orientation:
 ---------------------------------------------------------------------
 Center     Atomic      Atomic             Coordinates (Angstroms)
 Number     Number       Type             X           Y           Z
 ---------------------------------------------------------------------
      1          8           0        1.719299   -2.121416   -1.587160
      2          8           0       -0.476982   -2.495739   -1.214444
      3          6           0        0.603470   -2.691674   -1.787175
      4          1           0        0.618079   -3.461158   -2.578246
      5          8           0        1.890722    2.147768    1.159944
      6          8           0        3.038791    0.210968    1.172216
      7          6           0        2.821748    1.395867    1.523514
      8          1           0        3.545289    1.819699    2.240758
      9          8           0       -2.147334   -0.106827   -1.496866
     10          8           0        2.700282    0.475697   -1.566819
     11          8           0        1.361445    2.282339   -1.619333
     12          6           0        2.316544    1.573004   -2.021967
     13          1           0        2.885238    1.969427   -2.880717
     14          8           0       -0.561258   -2.092988    1.707679
     15          8           0        1.641641   -2.191137    1.219534
     16          6           0        0.614516   -2.444745    1.906501
     17          1           0        0.788877   -3.066072    2.801842
     18         26           0       -1.413309   -1.139251    0.109271
     19          8           0       -2.200113    0.271216    1.461080
     20         26           0        0.128950    1.914114    0.013878
     21          8           0       -0.904099    2.104849    1.697957
     22          8           0       -1.463991    2.017276   -1.149819
     23         26           0        1.890613   -0.775712   -0.159116
     24          8           0        0.227856    0.017067   -0.018780
     25          6           0       -1.839186    1.314437    2.023374
     26          1           0       -2.401164    1.612984    2.925989
     27          6           0       -2.107622    1.108608   -1.747308
     28          1           0       -2.717752    1.449683   -2.600897
     29          7           0       -5.545114   -0.100340    0.508588
     30          7           0       -4.982586    0.627297   -0.085807
     31          8           0       -2.746357   -2.050465    0.200371
     32          8           0        0.260095    4.095051    0.066221
     33          1           0        0.863019    4.302013   -0.660140
     34          1           0        0.748892    4.292809    0.875454
 ---------------------------------------------------------------------

 SCF Done:  E(UM06L) =  -5263.29812916     A.U. after   30 cycles

 Alpha  occ. eigenvalues -- -255.65724-255.65158-255.63311 -30.10086 -30.07326
 Alpha  occ. eigenvalues --  -29.99261 -25.87179 -25.87144 -25.87107 -25.84822
 Alpha  occ. eigenvalues --  -25.84776 -25.84413 -25.79432 -25.79415 -25.79383
 Alpha  occ. eigenvalues --  -19.03495 -18.99766 -18.99501 -18.99362 -18.99283
 Alpha  occ. eigenvalues --  -18.98934 -18.98879 -18.98855 -18.98762 -18.98709
 Alpha  occ. eigenvalues --  -18.98600 -18.98437 -18.97947 -18.97812 -18.97465
 Alpha  occ. eigenvalues --  -14.24676 -14.24533 -10.19490 -10.19441 -10.18575
 Alpha  occ. eigenvalues --  -10.18316 -10.18206 -10.18099  -3.66761  -3.61192
 Alpha  occ. eigenvalues --   -3.42803  -2.40823  -2.40740  -2.40682  -2.36252
 Alpha  occ. eigenvalues --   -2.36056  -2.33912  -2.17309  -2.17159  -2.17076
 Alpha  occ. eigenvalues --   -1.08184  -1.07638  -1.07173  -1.06938  -1.06670
 Alpha  occ. eigenvalues --   -1.06390  -1.05595  -1.05462  -1.00193  -0.99796
 Alpha  occ. eigenvalues --   -0.99434  -0.99126  -0.98973  -0.98622  -0.93829
 Alpha  occ. eigenvalues --   -0.89341  -0.60470  -0.59400  -0.59010  -0.58745
 Alpha  occ. eigenvalues --   -0.58447  -0.58143  -0.55748  -0.50323  -0.50312
 Alpha  occ. eigenvalues --   -0.49728  -0.49045  -0.48937  -0.48877  -0.48276
 Alpha  occ. eigenvalues --   -0.47797  -0.47606  -0.47466  -0.47063  -0.46840
 Alpha  occ. eigenvalues --   -0.46685  -0.45075  -0.44417  -0.43509  -0.43189
 Alpha  occ. eigenvalues --   -0.42864  -0.42596  -0.41835  -0.41659  -0.41446
 Alpha  occ. eigenvalues --   -0.41264  -0.41000  -0.39692  -0.39557  -0.38686
 Alpha  occ. eigenvalues --   -0.38399  -0.38213  -0.37969  -0.36323  -0.36263
 Alpha  occ. eigenvalues --   -0.35775  -0.35317  -0.34051  -0.33786  -0.32159
 Alpha  occ. eigenvalues --   -0.31826  -0.31574  -0.30578  -0.30254  -0.29867
 Alpha  occ. eigenvalues --   -0.29785  -0.29625  -0.29324  -0.29282  -0.28859
 Alpha  occ. eigenvalues --   -0.28609  -0.28312  -0.28221  -0.27539  -0.26394
 Alpha  occ. eigenvalues --   -0.25903  -0.24756  -0.23910  -0.23826  -0.22992
 Alpha virt. eigenvalues --   -0.17745  -0.17604  -0.17235  -0.15010  -0.12028
 Alpha virt. eigenvalues --   -0.11487  -0.04787  -0.04113  -0.03476  -0.03419
 Alpha virt. eigenvalues --   -0.03410  -0.02976  -0.02867  -0.02601   0.00676

  Beta  occ. eigenvalues -- -255.65892-255.64979-255.63200 -30.10856 -29.98683
  Beta  occ. eigenvalues --  -29.98165 -25.87944 -25.87879 -25.87846 -25.78918
  Beta  occ. eigenvalues --  -25.78902 -25.78738 -25.78727 -25.77633 -25.77411
  Beta  occ. eigenvalues --  -19.03653 -18.99597 -18.99496 -18.99495 -18.99255
  Beta  occ. eigenvalues --  -18.99222 -18.98954 -18.98600 -18.98577 -18.98555
  Beta  occ. eigenvalues --  -18.98524 -18.98241 -18.97794 -18.97602 -18.95906
  Beta  occ. eigenvalues --  -14.24675 -14.24532 -10.19492 -10.19435 -10.18576
  Beta  occ. eigenvalues --  -10.18317 -10.18198 -10.18099  -3.67555  -3.42618
  Beta  occ. eigenvalues --   -3.42460  -2.41628  -2.41483  -2.41427  -2.19345
  Beta  occ. eigenvalues --   -2.17285  -2.16661  -2.16645  -2.15989  -2.15552
  Beta  occ. eigenvalues --   -1.08131  -1.07586  -1.07218  -1.06641  -1.06557
  Beta  occ. eigenvalues --   -1.06048  -1.05768  -1.05593  -1.00144  -0.99756
  Beta  occ. eigenvalues --   -0.99483  -0.98922  -0.98679  -0.98248  -0.93256
  Beta  occ. eigenvalues --   -0.85326  -0.60406  -0.59387  -0.59012  -0.58512
  Beta  occ. eigenvalues --   -0.58412  -0.57657  -0.55913  -0.50355  -0.50313
  Beta  occ. eigenvalues --   -0.49429  -0.49012  -0.48834  -0.48304  -0.47969
  Beta  occ. eigenvalues --   -0.47741  -0.47207  -0.46925  -0.46636  -0.46309
  Beta  occ. eigenvalues --   -0.46186  -0.46073  -0.44926  -0.43393  -0.42872
  Beta  occ. eigenvalues --   -0.42523  -0.41768  -0.41621  -0.41406  -0.41321
  Beta  occ. eigenvalues --   -0.41147  -0.40769  -0.40062  -0.39858  -0.37946
  Beta  occ. eigenvalues --   -0.37326  -0.36374  -0.36095  -0.34359  -0.32571
  Beta  occ. eigenvalues --   -0.32270  -0.32137  -0.31805  -0.30986  -0.30618
  Beta  occ. eigenvalues --   -0.30536  -0.30204  -0.29899  -0.29684  -0.29344
  Beta  occ. eigenvalues --   -0.29071  -0.28790  -0.28706  -0.28604  -0.28171
  Beta  occ. eigenvalues --   -0.27637  -0.26673  -0.26112  -0.25555  -0.25216
  Beta  occ. eigenvalues --   -0.24660
  Beta virt. eigenvalues --   -0.17491  -0.16881  -0.16373  -0.15792  -0.13555
  Beta virt. eigenvalues --   -0.12250  -0.11814  -0.11687  -0.10808  -0.07185
  Beta virt. eigenvalues --   -0.04641  -0.04065  -0.03478  -0.03430  -0.03150

 Mulliken charges and spin densities:
               1          2
     1  O   -0.549171   0.109745
     2  O   -0.516638   0.052946
     3  C    0.690109  -0.000002
     4  H    0.053043   0.017612
     5  O   -0.585718  -0.046869
     6  O   -0.535723   0.068619
     7  C    0.695954  -0.003165
     8  H    0.050747   0.001038
     9  O   -0.491675   0.017453
    10  O   -0.543604   0.055024
    11  O   -0.594319  -0.056434
    12  C    0.688934  -0.001492
    13  H    0.050804  -0.000465
    14  O   -0.491849   0.051818
    15  O   -0.557243   0.096091
    16  C    0.680647  -0.001901
    17  H    0.053969   0.015526
    18  Fe   1.006826   3.208292
    19  O   -0.527222   0.028709
    20  Fe   0.992618  -4.224196
    21  O   -0.560529  -0.097358
    22  O   -0.562610  -0.098609
    23  Fe   0.997796   4.203835
    24  O   -0.702499   0.060592
    25  C    0.690306   0.006335
    26  H    0.051347  -0.004062
    27  C    0.697130   0.002136
    28  H    0.058160  -0.006604
    29  N   -0.014832  -0.001534
    30  N    0.008956   0.002801
    31  O   -0.436336   0.580829
    32  O   -0.545610  -0.035959
    33  H    0.370673  -0.000275
    34  H    0.377557  -0.000477
 Sum of Mulliken charges =  -0.00000   4.00000

 Dipole moment (field-independent basis, Debye):
    X=              4.5013    Y=              5.4616    Z=             -0.1097  Tot=              7.0783
 Quadrupole moment (field-independent basis, Debye-Ang):
   XX=           -176.3826   YY=           -155.4065   ZZ=           -157.8466
   XY=              1.3182   XZ=              2.4781   YZ=              0.8840

 Normal termination of Gaussian 16 at Mon Apr  3 10:23:24 2023.
