 Gaussian 16, Revision C.02,
 Gaussian 16:  ES64L-G16RevC.02  7-Dec-2021

 ----------------------------------------------------------------------
 #p opt=(cartesian,maxcycle=500) gen um06l int=grid=ultrafine scf=(xqc,
 intrep,maxconventionalcycle=150) pop=(hirshfeld) nosymm
 ----------------------------------------------------------------------

 ---------------
 FeFeFe-AO-0xH2O
 ---------------
 Symbolic Z-matrix:
 Charge =  0 Multiplicity =15

 SCF Done:  E(UM06L) =  -5186.81407736     A.U. after   31 cycles
 SCF Done:  E(UM06L) =  -5186.80670615     A.U. after   25 cycles
 SCF Done:  E(UM06L) =  -5186.81374577     A.U. after   23 cycles
 SCF Done:  E(UM06L) =  -5186.81407736     A.U. after    7 cycles
 SCF Done:  E(UM06L) =  -5186.81402762     A.U. after   19 cycles
 SCF Done:  E(UM06L) =  -5186.81405934     A.U. after   21 cycles
 SCF Done:  E(UM06L) =  -5186.81407742     A.U. after    7 cycles
 SCF Done:  E(UM06L) =  -5186.81402807     A.U. after   20 cycles
 SCF Done:  E(UM06L) =  -5186.81406768     A.U. after   19 cycles
 SCF Done:  E(UM06L) =  -5186.81407742     A.U. after    7 cycles
 SCF Done:  E(UM06L) =  -5186.81407803     A.U. after   16 cycles
 SCF Done:  E(UM06L) =  -5186.81407846     A.U. after   16 cycles
 SCF Done:  E(UM06L) =  -5186.81407863     A.U. after   14 cycles
 SCF Done:  E(UM06L) =  -5186.81407892     A.U. after   14 cycles
 SCF Done:  E(UM06L) =  -5186.81407804     A.U. after   20 cycles
 SCF Done:  E(UM06L) =  -5186.81407925     A.U. after   16 cycles
 SCF Done:  E(UM06L) =  -5186.81407958     A.U. after   11 cycles
 Optimization completed.
    -- Stationary point found.

                          Input orientation:
 ---------------------------------------------------------------------
 Center     Atomic      Atomic             Coordinates (Angstroms)
 Number     Number       Type             X           Y           Z
 ---------------------------------------------------------------------
      1          8           0        0.989679    2.540321    1.358430
      2          8           0       -1.187444    1.958685    1.460547
      3          6           0       -0.180015    2.621179    1.802317
      4          1           0       -0.341842    3.368752    2.597484
      5          8           0        2.323172   -1.751258   -1.440705
      6          8           0        2.896338    0.428830   -1.482264
      7          6           0        2.968333   -0.762291   -1.864669
      8          1           0        3.684037   -0.967100   -2.678484
      9          8           0       -1.943795   -0.839586    1.473150
     10          8           0        2.957111    0.470581    1.343816
     11          8           0        2.388727   -1.711165    1.365850
     12          6           0        3.047758   -0.713331    1.744828
     13          1           0        3.796695   -0.901335    2.532397
     14          8           0       -1.248871    1.947948   -1.417608
     15          8           0        0.936488    2.505240   -1.467525
     16          6           0       -0.258886    2.591179   -1.836906
     17          1           0       -0.463094    3.324565   -2.635527
     18         26           0       -1.382471    0.525741    0.031911
     19          8           0       -2.011247   -0.848941   -1.370197
     20         26           0        0.908015   -1.858177   -0.002790
     21          8           0       -0.453959   -2.482350   -1.366919
     22          8           0       -0.382260   -2.468416    1.432047
     23         26           0        1.748955    1.300598   -0.056020
     24          8           0        0.417765   -0.041146   -0.008069
     25          6           0       -1.512554   -1.932790   -1.753770
     26          1           0       -2.074845   -2.474040   -2.534271
     27          6           0       -1.425787   -1.914938    1.853872
     28          1           0       -1.952313   -2.444526    2.666654
     29          7           0       -4.418096    0.050515    0.093843
     30          7           0       -5.115075   -0.828302    0.106438
     31          8           0       -3.696744    0.990223    0.081283
 ---------------------------------------------------------------------

 Alpha  occ. eigenvalues -- -255.62596-255.62388-255.62085 -30.07050 -30.06899
 Alpha  occ. eigenvalues --  -30.06523 -25.84708 -25.84640 -25.84303 -25.84071
 Alpha  occ. eigenvalues --  -25.83857 -25.83668 -25.83512 -25.83460 -25.83146
 Alpha  occ. eigenvalues --  -19.09271 -18.98322 -18.98308 -18.98287 -18.98278
 Alpha  occ. eigenvalues --  -18.98275 -18.98270 -18.98238 -18.98233 -18.98222
 Alpha  occ. eigenvalues --  -18.98220 -18.98219 -18.98218 -18.96659 -14.40982
 Alpha  occ. eigenvalues --  -14.28422 -10.18087 -10.18080 -10.18078 -10.18070
 Alpha  occ. eigenvalues --  -10.17915 -10.17915  -3.63997  -3.63811  -3.63441
 Alpha  occ. eigenvalues --   -2.39216  -2.39156  -2.38856  -2.37822  -2.37538
 Alpha  occ. eigenvalues --   -2.37113  -2.37058  -2.36849  -2.36490  -1.23384
 Alpha  occ. eigenvalues --   -1.07024  -1.06773  -1.06741  -1.06506  -1.06461
 Alpha  occ. eigenvalues --   -1.06402  -1.06367  -0.99245  -0.99216  -0.98877
 Alpha  occ. eigenvalues --   -0.98787  -0.98758  -0.98666  -0.94354  -0.61619
 Alpha  occ. eigenvalues --   -0.59799  -0.58678  -0.58519  -0.58343  -0.58314
 Alpha  occ. eigenvalues --   -0.58139  -0.55086  -0.54555  -0.49721  -0.49643
 Alpha  occ. eigenvalues --   -0.49028  -0.48129  -0.48007  -0.47893  -0.47680
 Alpha  occ. eigenvalues --   -0.47663  -0.47653  -0.47141  -0.46804  -0.46688
 Alpha  occ. eigenvalues --   -0.45986  -0.44322  -0.44081  -0.43960  -0.42798
 Alpha  occ. eigenvalues --   -0.42683  -0.42182  -0.40771  -0.40699  -0.39250
 Alpha  occ. eigenvalues --   -0.38081  -0.37888  -0.37579  -0.37554  -0.37449
 Alpha  occ. eigenvalues --   -0.37050  -0.36913  -0.36379  -0.36329  -0.36134
 Alpha  occ. eigenvalues --   -0.34727  -0.34237  -0.33619  -0.33098  -0.33069
 Alpha  occ. eigenvalues --   -0.32864  -0.29927  -0.29829  -0.29291  -0.29234
 Alpha  occ. eigenvalues --   -0.29131  -0.29034  -0.28996  -0.28765  -0.28653
 Alpha  occ. eigenvalues --   -0.28160  -0.28030  -0.27745  -0.27720  -0.25787
 Alpha  occ. eigenvalues --   -0.24420  -0.23211  -0.23065  -0.22354  -0.22014
 Alpha virt. eigenvalues --   -0.06270  -0.05752  -0.04157  -0.03519  -0.03420
 Alpha virt. eigenvalues --   -0.03172  -0.02178  -0.02059   0.01616   0.02054
 Alpha virt. eigenvalues --    0.03553   0.06789   0.08060   0.08251   0.08653

  Beta  occ. eigenvalues -- -255.62428-255.62213-255.61911 -29.95827 -29.95765
  Beta  occ. eigenvalues --  -29.95441 -25.76192 -25.76177 -25.75880 -25.75853
  Beta  occ. eigenvalues --  -25.75770 -25.75741 -25.75607 -25.75400 -25.75318
  Beta  occ. eigenvalues --  -19.09222 -18.98022 -18.98007 -18.97995 -18.97984
  Beta  occ. eigenvalues --  -18.97962 -18.97954 -18.97942 -18.97936 -18.97930
  Beta  occ. eigenvalues --  -18.97926 -18.97911 -18.97911 -18.94888 -14.40986
  Beta  occ. eigenvalues --  -14.28394 -10.18108 -10.18101 -10.18092 -10.18084
  Beta  occ. eigenvalues --  -10.17945 -10.17945  -3.39802  -3.39799  -3.39523
  Beta  occ. eigenvalues --   -2.14863  -2.14707  -2.14641  -2.14239  -2.14168
  Beta  occ. eigenvalues --   -2.13905  -2.13850  -2.13771  -2.13655  -1.23296
  Beta  occ. eigenvalues --   -1.06459  -1.06398  -1.06188  -1.06137  -1.05867
  Beta  occ. eigenvalues --   -1.05811  -1.05751  -0.98524  -0.98473  -0.98143
  Beta  occ. eigenvalues --   -0.98070  -0.98027  -0.97901  -0.89600  -0.61381
  Beta  occ. eigenvalues --   -0.59146  -0.58181  -0.58022  -0.57717  -0.57518
  Beta  occ. eigenvalues --   -0.57469  -0.54946  -0.54513  -0.48555  -0.48448
  Beta  occ. eigenvalues --   -0.47128  -0.46758  -0.46756  -0.46683  -0.46673
  Beta  occ. eigenvalues --   -0.46621  -0.46214  -0.46113  -0.45991  -0.45890
  Beta  occ. eigenvalues --   -0.45806  -0.43017  -0.42157  -0.42069  -0.41232
  Beta  occ. eigenvalues --   -0.40331  -0.40238  -0.36693  -0.36311  -0.34389
  Beta  occ. eigenvalues --   -0.33685  -0.31713  -0.31673  -0.31596  -0.30974
  Beta  occ. eigenvalues --   -0.29776  -0.29588  -0.29464  -0.29425  -0.29407
  Beta  occ. eigenvalues --   -0.28978  -0.28870  -0.28278  -0.28152  -0.28005
  Beta  occ. eigenvalues --   -0.27879  -0.27208  -0.27156  -0.27050  -0.25788
  Beta  occ. eigenvalues --   -0.17928
  Beta virt. eigenvalues --   -0.16645  -0.16464  -0.15879  -0.15733  -0.15452
  Beta virt. eigenvalues --   -0.15338  -0.14498  -0.13113  -0.12029  -0.09429
  Beta virt. eigenvalues --   -0.09389  -0.09094  -0.08512  -0.08139  -0.05685

 Mulliken charges and spin densities:
               1          2
     1  O   -0.563355   0.073772
     2  O   -0.562971   0.073224
     3  C    0.693389  -0.006794
     4  H    0.045964   0.016962
     5  O   -0.555934   0.082937
     6  O   -0.555457   0.081143
     7  C    0.682205  -0.022414
     8  H    0.046464   0.016936
     9  O   -0.581195   0.075556
    10  O   -0.554995   0.081391
    11  O   -0.556201   0.082956
    12  C    0.682216  -0.022301
    13  H    0.046474   0.016971
    14  O   -0.563185   0.073018
    15  O   -0.562710   0.073856
    16  C    0.693498  -0.006806
    17  H    0.046001   0.016944
    18  Fe   1.010957   4.153248
    19  O   -0.581762   0.075846
    20  Fe   1.016255   4.162986
    21  O   -0.561703   0.075180
    22  O   -0.561836   0.075100
    23  Fe   1.009493   4.144762
    24  O   -0.792205   0.586600
    25  C    0.691079  -0.014008
    26  H    0.045390   0.017488
    27  C    0.691253  -0.014031
    28  H    0.045417   0.017441
    29  N    0.614226  -0.000214
    30  N   -0.063220   0.015665
    31  O   -0.443553  -0.003415
 Sum of Mulliken charges =  -0.00000  14.00000

 Dipole moment (field-independent basis, Debye):
    X=             -1.3787    Y=              0.2246    Z=              0.0304  Tot=              1.3972
 Quadrupole moment (field-independent basis, Debye-Ang):
   XX=           -154.4636   YY=           -162.3722   ZZ=           -156.6772
   XY=             -1.9127   XZ=              0.0016   YZ=              0.0736

 Normal termination of Gaussian 16 at Mon Jan 23 03:06:09 2023.
