 Gaussian 16, Revision C.02,
 Gaussian 16:  ES64L-G16RevC.02  7-Dec-2021

 ----------------------------------------------------------------------
 #p freq=raman scale=0.967 guess=read geom=allcheck gen um06l int=grid=
 ultrafine scf=(xqc,intrep,maxconventionalcycle=150) pop=(hirshfeld) no
 symm
 ----------------------------------------------------------------------

 Structure from the checkpoint file:  "/scratch1/svicchi/G09-56282.pbs02/02-freq/FeFeFe-AO-0xH2O-freq.chk"
 ---------------
 FeFeFe-AO-0xH2O
 ---------------
 Charge =  0 Multiplicity =15

                          Input orientation:
 ---------------------------------------------------------------------
 Center     Atomic      Atomic             Coordinates (Angstroms)
 Number     Number       Type             X           Y           Z
 ---------------------------------------------------------------------
      1          8           0        0.989679    2.540321    1.358430
      2          8           0       -1.187444    1.958685    1.460547
      3          6           0       -0.180015    2.621179    1.802317
      4          1           0       -0.341842    3.368752    2.597484
      5          8           0        2.323172   -1.751258   -1.440705
      6          8           0        2.896338    0.428830   -1.482264
      7          6           0        2.968333   -0.762291   -1.864669
      8          1           0        3.684037   -0.967100   -2.678484
      9          8           0       -1.943795   -0.839586    1.473150
     10          8           0        2.957111    0.470581    1.343816
     11          8           0        2.388727   -1.711165    1.365850
     12          6           0        3.047758   -0.713331    1.744828
     13          1           0        3.796695   -0.901335    2.532397
     14          8           0       -1.248871    1.947948   -1.417608
     15          8           0        0.936488    2.505240   -1.467525
     16          6           0       -0.258886    2.591179   -1.836906
     17          1           0       -0.463094    3.324565   -2.635527
     18         26           0       -1.382471    0.525741    0.031911
     19          8           0       -2.011247   -0.848941   -1.370197
     20         26           0        0.908015   -1.858177   -0.002790
     21          8           0       -0.453959   -2.482350   -1.366919
     22          8           0       -0.382260   -2.468416    1.432047
     23         26           0        1.748955    1.300598   -0.056020
     24          8           0        0.417765   -0.041146   -0.008069
     25          6           0       -1.512554   -1.932790   -1.753770
     26          1           0       -2.074845   -2.474040   -2.534271
     27          6           0       -1.425787   -1.914938    1.853872
     28          1           0       -1.952313   -2.444526    2.666654
     29          7           0       -4.418096    0.050515    0.093843
     30          7           0       -5.115075   -0.828302    0.106438
     31          8           0       -3.696744    0.990223    0.081283
 ---------------------------------------------------------------------

 SCF Done:  E(UM06L) =  -5186.81407958     A.U. after    3 cycles

 Alpha  occ. eigenvalues -- -255.62596-255.62388-255.62085 -30.07050 -30.06899
 Alpha  occ. eigenvalues --  -30.06523 -25.84708 -25.84640 -25.84303 -25.84072
 Alpha  occ. eigenvalues --  -25.83857 -25.83668 -25.83512 -25.83460 -25.83146
 Alpha  occ. eigenvalues --  -19.09271 -18.98322 -18.98308 -18.98287 -18.98277
 Alpha  occ. eigenvalues --  -18.98275 -18.98270 -18.98238 -18.98233 -18.98222
 Alpha  occ. eigenvalues --  -18.98220 -18.98219 -18.98218 -18.96659 -14.40982
 Alpha  occ. eigenvalues --  -14.28422 -10.18087 -10.18080 -10.18078 -10.18070
 Alpha  occ. eigenvalues --  -10.17915 -10.17915  -3.63997  -3.63811  -3.63441
 Alpha  occ. eigenvalues --   -2.39216  -2.39156  -2.38855  -2.37822  -2.37538
 Alpha  occ. eigenvalues --   -2.37113  -2.37058  -2.36849  -2.36489  -1.23384
 Alpha  occ. eigenvalues --   -1.07024  -1.06773  -1.06741  -1.06506  -1.06461
 Alpha  occ. eigenvalues --   -1.06402  -1.06367  -0.99245  -0.99216  -0.98877
 Alpha  occ. eigenvalues --   -0.98787  -0.98758  -0.98666  -0.94354  -0.61619
 Alpha  occ. eigenvalues --   -0.59799  -0.58678  -0.58519  -0.58343  -0.58314
 Alpha  occ. eigenvalues --   -0.58139  -0.55086  -0.54555  -0.49721  -0.49643
 Alpha  occ. eigenvalues --   -0.49028  -0.48129  -0.48007  -0.47893  -0.47680
 Alpha  occ. eigenvalues --   -0.47663  -0.47653  -0.47141  -0.46804  -0.46688
 Alpha  occ. eigenvalues --   -0.45986  -0.44322  -0.44081  -0.43960  -0.42798
 Alpha  occ. eigenvalues --   -0.42683  -0.42182  -0.40771  -0.40699  -0.39250
 Alpha  occ. eigenvalues --   -0.38081  -0.37888  -0.37579  -0.37554  -0.37449
 Alpha  occ. eigenvalues --   -0.37050  -0.36913  -0.36379  -0.36329  -0.36134
 Alpha  occ. eigenvalues --   -0.34727  -0.34237  -0.33619  -0.33098  -0.33069
 Alpha  occ. eigenvalues --   -0.32864  -0.29927  -0.29829  -0.29291  -0.29234
 Alpha  occ. eigenvalues --   -0.29131  -0.29034  -0.28996  -0.28765  -0.28653
 Alpha  occ. eigenvalues --   -0.28160  -0.28030  -0.27745  -0.27720  -0.25787
 Alpha  occ. eigenvalues --   -0.24420  -0.23211  -0.23065  -0.22354  -0.22014
 Alpha virt. eigenvalues --   -0.06270  -0.05752  -0.04157  -0.03519  -0.03420
 Alpha virt. eigenvalues --   -0.03172  -0.02178  -0.02059   0.01616   0.02054
 Alpha virt. eigenvalues --    0.03553   0.06789   0.08060   0.08251   0.08653

  Beta  occ. eigenvalues -- -255.62428-255.62213-255.61911 -29.95827 -29.95765
  Beta  occ. eigenvalues --  -29.95440 -25.76192 -25.76177 -25.75881 -25.75853
  Beta  occ. eigenvalues --  -25.75770 -25.75741 -25.75607 -25.75400 -25.75318
  Beta  occ. eigenvalues --  -19.09222 -18.98022 -18.98007 -18.97995 -18.97984
  Beta  occ. eigenvalues --  -18.97962 -18.97954 -18.97942 -18.97936 -18.97930
  Beta  occ. eigenvalues --  -18.97926 -18.97911 -18.97911 -18.94888 -14.40986
  Beta  occ. eigenvalues --  -14.28394 -10.18108 -10.18101 -10.18092 -10.18084
  Beta  occ. eigenvalues --  -10.17945 -10.17945  -3.39802  -3.39799  -3.39523
  Beta  occ. eigenvalues --   -2.14863  -2.14707  -2.14641  -2.14239  -2.14168
  Beta  occ. eigenvalues --   -2.13905  -2.13850  -2.13771  -2.13655  -1.23296
  Beta  occ. eigenvalues --   -1.06459  -1.06398  -1.06188  -1.06137  -1.05867
  Beta  occ. eigenvalues --   -1.05811  -1.05751  -0.98524  -0.98473  -0.98143
  Beta  occ. eigenvalues --   -0.98070  -0.98027  -0.97901  -0.89600  -0.61381
  Beta  occ. eigenvalues --   -0.59146  -0.58181  -0.58022  -0.57717  -0.57518
  Beta  occ. eigenvalues --   -0.57469  -0.54946  -0.54513  -0.48555  -0.48448
  Beta  occ. eigenvalues --   -0.47128  -0.46758  -0.46756  -0.46683  -0.46673
  Beta  occ. eigenvalues --   -0.46621  -0.46214  -0.46113  -0.45991  -0.45890
  Beta  occ. eigenvalues --   -0.45806  -0.43017  -0.42157  -0.42069  -0.41232
  Beta  occ. eigenvalues --   -0.40331  -0.40238  -0.36693  -0.36311  -0.34389
  Beta  occ. eigenvalues --   -0.33685  -0.31713  -0.31673  -0.31596  -0.30974
  Beta  occ. eigenvalues --   -0.29776  -0.29588  -0.29464  -0.29425  -0.29407
  Beta  occ. eigenvalues --   -0.28978  -0.28870  -0.28278  -0.28152  -0.28005
  Beta  occ. eigenvalues --   -0.27879  -0.27208  -0.27156  -0.27050  -0.25788
  Beta  occ. eigenvalues --   -0.17928
  Beta virt. eigenvalues --   -0.16645  -0.16464  -0.15879  -0.15733  -0.15452
  Beta virt. eigenvalues --   -0.15338  -0.14498  -0.13113  -0.12029  -0.09429
  Beta virt. eigenvalues --   -0.09389  -0.09094  -0.08512  -0.08139  -0.05685

 Mulliken charges and spin densities:
               1          2
     1  O   -0.563355   0.073771
     2  O   -0.562972   0.073224
     3  C    0.693389  -0.006794
     4  H    0.045964   0.016962
     5  O   -0.555934   0.082937
     6  O   -0.555457   0.081143
     7  C    0.682205  -0.022414
     8  H    0.046464   0.016936
     9  O   -0.581196   0.075555
    10  O   -0.554996   0.081391
    11  O   -0.556201   0.082955
    12  C    0.682217  -0.022300
    13  H    0.046474   0.016971
    14  O   -0.563184   0.073018
    15  O   -0.562711   0.073855
    16  C    0.693499  -0.006805
    17  H    0.046001   0.016944
    18  Fe   1.010951   4.153242
    19  O   -0.581762   0.075847
    20  Fe   1.016262   4.162992
    21  O   -0.561705   0.075178
    22  O   -0.561837   0.075098
    23  Fe   1.009494   4.144763
    24  O   -0.792204   0.586600
    25  C    0.691080  -0.014007
    26  H    0.045391   0.017488
    27  C    0.691253  -0.014031
    28  H    0.045417   0.017441
    29  N    0.614225  -0.000214
    30  N   -0.063219   0.015665
    31  O   -0.443552  -0.003415
 Sum of Mulliken charges =  -0.00000  14.00000

 Dipole moment (field-independent basis, Debye):
    X=             -1.3786    Y=              0.2245    Z=              0.0304  Tot=              1.3971
 Quadrupole moment (field-independent basis, Debye-Ang):
   XX=           -154.4636   YY=           -162.3721   ZZ=           -156.6772
   XY=             -1.9127   XZ=              0.0016   YZ=              0.0736

  Exact polarizability:     267.874       6.661     234.896      -1.900      -0.501     185.378
 Approx polarizability:    1129.474      -6.621     919.856     -20.217      -5.167     302.281

                      1                      2                      3
                      A                      A                      A
 Frequencies --     25.9720                35.8499                41.2361
 Red. masses --     12.5619                11.0363                11.6674
 Frc consts  --      0.0050                 0.0084                 0.0117
 IR Inten    --      0.0242                 0.0173                 0.0144
 Raman Activ --      0.9094                 0.0714                 0.1745

                      4                      5                      6
                      A                      A                      A
 Frequencies --     41.5625                46.9827                86.9477
 Red. masses --     13.7408                10.8550                 9.3302
 Frc consts  --      0.0140                 0.0141                 0.0416
 IR Inten    --      0.2026                 0.0238                 0.0535
 Raman Activ --      2.0333                 0.8917                 0.7664

                      7                      8                      9
                      A                      A                      A
 Frequencies --     89.4496                92.0322                96.0865
 Red. masses --     13.0401                 9.3751                14.8714
 Frc consts  --      0.0615                 0.0468                 0.0809
 IR Inten    --      0.1267                 0.0293                 0.0037
 Raman Activ --      1.6653                 0.5172                 2.3071

                     10                     11                     12
                      A                      A                      A
 Frequencies --    102.3390               112.6220               113.7819
 Red. masses --      8.2835                 6.8800                11.1634
 Frc consts  --      0.0511                 0.0514                 0.0852
 IR Inten    --      0.0671                 0.1681                 0.0084
 Raman Activ --      5.3614                 4.8101                 3.3552

                     13                     14                     15
                      A                      A                      A
 Frequencies --    124.9069               129.1217               135.9573
 Red. masses --      4.4886                12.6586                 6.7159
 Frc consts  --      0.0413                 0.1243                 0.0731
 IR Inten    --      0.0807                 0.0105                 2.5060
 Raman Activ --     16.7976                 1.0394                 2.1165

                     16                     17                     18
                      A                      A                      A
 Frequencies --    146.6901               155.2951               158.9832
 Red. masses --      8.4322                17.1950                 9.5796
 Frc consts  --      0.1069                 0.2443                 0.1427
 IR Inten    --      1.7286                 2.4783                 5.4251
 Raman Activ --      0.8267                 0.2827                 2.3880

                     19                     20                     21
                      A                      A                      A
 Frequencies --    159.6292               161.5267               162.6104
 Red. masses --     13.2200                 9.7908                14.5898
 Frc consts  --      0.1985                 0.1505                 0.2273
 IR Inten    --     14.8060                 1.8041                15.5071
 Raman Activ --      4.1349                 1.3109                 0.3738

                     22                     23                     24
                      A                      A                      A
 Frequencies --    177.5716               182.4810               211.8954
 Red. masses --      5.1447                14.1942                19.6878
 Frc consts  --      0.0956                 0.2785                 0.5208
 IR Inten    --      0.3360                 2.2055                 0.7791
 Raman Activ --      0.1494                 7.8756                 0.2335

                     25                     26                     27
                      A                      A                      A
 Frequencies --    220.6609               224.3450               246.0469
 Red. masses --     17.0429                16.7645                 2.8785
 Frc consts  --      0.4889                 0.4971                 0.1027
 IR Inten    --      0.7418                 0.1926                 0.0227
 Raman Activ --      0.3606                 1.0487                 0.5303

                     28                     29                     30
                      A                      A                      A
 Frequencies --    250.8480               277.1263               281.9586
 Red. masses --      2.8916                 9.8481                 9.6240
 Frc consts  --      0.1072                 0.4456                 0.4508
 IR Inten    --      0.2476                 0.5870                 0.4330
 Raman Activ --      0.3458                 2.5604                 2.9634

                     31                     32                     33
                      A                      A                      A
 Frequencies --    285.8473               293.0381               303.1747
 Red. masses --      8.3994                 4.5757                 3.3849
 Frc consts  --      0.4044                 0.2315                 0.1833
 IR Inten    --      0.1814                 1.9707                26.4005
 Raman Activ --      0.5464                11.5702                 2.1827

                     34                     35                     36
                      A                      A                      A
 Frequencies --    305.5535               314.7028               332.9371
 Red. masses --      4.1329                 3.7015                 6.3823
 Frc consts  --      0.2273                 0.2160                 0.4168
 IR Inten    --     23.1734                14.3182                18.3723
 Raman Activ --      0.0428                 3.6247                18.3753

                     37                     38                     39
                      A                      A                      A
 Frequencies --    340.4888               348.1632               357.5375
 Red. masses --      8.3255                 8.4586                11.6928
 Frc consts  --      0.5687                 0.6041                 0.8807
 IR Inten    --     43.4854                37.5082                16.2744
 Raman Activ --     18.6493                 0.9012                 6.8128

                     40                     41                     42
                      A                      A                      A
 Frequencies --    359.2530               366.2228               366.5038
 Red. masses --     11.6401                10.3889                11.6678
 Frc consts  --      0.8851                 0.8209                 0.9234
 IR Inten    --      2.6063                 5.8776                 2.3526
 Raman Activ --      5.3281                 3.5096                 2.5965

                     43                     44                     45
                      A                      A                      A
 Frequencies --    394.6778               400.1262               401.6332
 Red. masses --     15.2941                14.9259                16.0293
 Frc consts  --      1.4037                 1.4079                 1.5234
 IR Inten    --    121.5528               281.3701               133.1317
 Raman Activ --      6.6355                 0.2037                 4.2469

                     46                     47                     48
                      A                      A                      A
 Frequencies --    589.4172               598.8079               616.7212
 Red. masses --     16.7962                16.5373                14.2581
 Frc consts  --      3.4380                 3.4937                 3.1951
 IR Inten    --     14.1530                 7.0414                 4.4232
 Raman Activ --     29.7267                14.7651                 0.5007

                     49                     50                     51
                      A                      A                      A
 Frequencies --    628.8073               733.1028               735.5602
 Red. masses --     14.3520                11.2964                11.2950
 Frc consts  --      3.3435                 3.5770                 3.6006
 IR Inten    --     11.8431                 3.0616                 1.1612
 Raman Activ --      0.4063                 3.1369                 4.5432

                     52                     53                     54
                      A                      A                      A
 Frequencies --    740.3573               746.2673               748.6075
 Red. masses --     11.2587                11.3058                11.3978
 Frc consts  --      3.6360                 3.7097                 3.7634
 IR Inten    --     76.9355                33.5587                23.7152
 Raman Activ --      0.1010                 5.7424                 2.9460

                     55                     56                     57
                      A                      A                      A
 Frequencies --    751.1860              1043.3558              1045.1067
 Red. masses --     11.4411                 1.6825                 1.6792
 Frc consts  --      3.8038                 1.0791                 1.0806
 IR Inten    --     13.5746                 0.0082                 0.0080
 Raman Activ --      3.9894                 0.2339                 3.7724

                     58                     59                     60
                      A                      A                      A
 Frequencies --   1046.8248              1048.4306              1049.6386
 Red. masses --      1.6930                 1.6912                 1.6869
 Frc consts  --      1.0931                 1.0953                 1.0950
 IR Inten    --      0.0002                 0.0248                 0.0020
 Raman Activ --      0.0995                 3.3286                 0.0073

                     61                     62                     63
                      A                      A                      A
 Frequencies --   1051.2140              1340.3417              1387.5978
 Red. masses --      1.6870                15.0660                 9.0417
 Frc consts  --      1.0984                15.9470                10.2571
 IR Inten    --      0.0394                92.2129                 9.6345
 Raman Activ --      4.5235                42.0898                14.9415

                     64                     65                     66
                      A                      A                      A
 Frequencies --   1390.1089              1393.0552              1394.5131
 Red. masses --      9.7152                 9.5065                 7.6839
 Frc consts  --     11.0611                10.8694                 8.8039
 IR Inten    --     57.4092               240.9162               355.8264
 Raman Activ --      4.1577                 9.7139                 0.4729

                     67                     68                     69
                      A                      A                      A
 Frequencies --   1395.3206              1397.1474              1397.6345
 Red. masses --      8.9841                 1.1398                 1.1176
 Frc consts  --     10.3056                 1.3109                 1.2863
 IR Inten    --    242.1224                10.0981                 8.3454
 Raman Activ --     15.8810                 1.8609                 3.8583

                     70                     71                     72
                      A                      A                      A
 Frequencies --   1397.9961              1398.5996              1398.9511
 Red. masses --      1.1119                 1.1162                 1.1155
 Frc consts  --      1.2804                 1.2864                 1.2863
 IR Inten    --      5.0481                35.0196                 4.0234
 Raman Activ --      3.7368                12.4956                 5.9052

                     73                     74                     75
                      A                      A                      A
 Frequencies --   1399.6602              1401.8684              1575.9988
 Red. masses --      1.1016                 9.2025                10.8060
 Frc consts  --      1.2715                10.6555                15.8134
 IR Inten    --     30.4117                 9.9467                 0.0084
 Raman Activ --      9.9645                45.5924                 0.5737

                     76                     77                     78
                      A                      A                      A
 Frequencies --   1597.7151              1600.6800              1603.2112
 Red. masses --     11.3656                11.4029                11.3991
 Frc consts  --     17.0939                17.2137                17.2625
 IR Inten    --      0.0733                 0.0292                15.8627
 Raman Activ --     14.9755                20.6186                 2.0684

                     79                     80                     81
                      A                      A                      A
 Frequencies --   1626.3129              1627.1095              2393.8670
 Red. masses --     11.4915                11.5557                14.0887
 Frc consts  --     17.9075                18.0252                47.5686
 IR Inten    --    495.8282               449.1602               406.3227
 Raman Activ --      2.5241                 0.6415                35.6503

                     82                     83                     84
                      A                      A                      A
 Frequencies --   2973.4241              2975.1208              2980.2100
 Red. masses --      1.0835                 1.0839                 1.0839
 Frc consts  --      5.6441                 5.6528                 5.6721
 IR Inten    --     86.2904               124.5206                89.6890
 Raman Activ --    266.7090               285.1066               299.7158

                     85                     86                     87
                      A                      A                      A
 Frequencies --   2981.7467              2983.4978              2986.1778
 Red. masses --      1.0843                 1.0840                 1.0844
 Frc consts  --      5.6797                 5.6847                 5.6973
 IR Inten    --    133.8952               104.6828                93.9193
 Raman Activ --    341.8715               347.6485               588.5330

 - Thermochemistry -
 -------------------
 Temperature   298.150 Kelvin.  Pressure   1.00000 Atm.
 Thermochemistry will use frequencies scaled by 0.9670.

 Molecular mass:   497.78672 amu.
 Principal axes and moments of inertia in atomic units:
                           1         2         3
     Eigenvalues --  6921.97515********************
           X            0.99969   0.01043   0.02276
           Y           -0.01064   0.99990   0.00920
           Z           -0.02266  -0.00944   0.99970
 This molecule is an asymmetric top.
 Rotational symmetry number  1.
 Warning -- assumption of classical behavior for rotation
           may cause significant error
 Rotational temperatures (Kelvin)      0.01251     0.00862     0.00707
 Rotational constants (GHZ):           0.26073     0.17959     0.14737
 Zero-point vibrational energy     408541.1 (Joules/Mol)
                                   97.64366 (Kcal/Mol)
 Warning -- explicit consideration of  49 degrees of freedom as
           vibrations may cause significant error
 Vibrational temperatures:     36.13    49.88    57.37    57.83    65.37
          (Kelvin)            120.97   124.45   128.04   133.68   142.38
                              156.69   158.30   173.78   179.65   189.16
                              204.09   216.06   221.19   222.09   224.73
                              226.24   247.05   253.89   294.81   307.00
                              312.13   342.32   349.00   385.57   392.29
                              397.70   407.70   421.81   425.12   437.85
                              463.21   473.72   484.40   497.44   499.83
                              509.52   509.92   549.11   556.69   558.79
                              820.05   833.12   858.04   874.86  1019.96
                             1023.38  1030.06  1038.28  1041.54  1045.12
                             1451.62  1454.05  1456.44  1458.68  1460.36
                             1462.55  1864.81  1930.56  1934.05  1938.15
                             1940.18  1941.31  1943.85  1944.53  1945.03
                             1945.87  1946.36  1947.34  1950.42  2192.68
                             2222.90  2227.02  2230.54  2262.68  2263.79
                             3330.58  4136.92  4139.28  4146.36  4148.50
                             4150.93  4154.66

 Zero-point correction=                           0.155605 (Hartree/Particle)
 Thermal correction to Energy=                    0.185983
 Thermal correction to Enthalpy=                  0.186927
 Thermal correction to Gibbs Free Energy=         0.090486
 Sum of electronic and zero-point Energies=          -5186.658474
 Sum of electronic and thermal Energies=             -5186.628097
 Sum of electronic and thermal Enthalpies=           -5186.627153
 Sum of electronic and thermal Free Energies=        -5186.723594

                     E (Thermal)             CV                S
                      KCal/Mol        Cal/Mol-Kelvin    Cal/Mol-Kelvin
 Total                  116.706            100.265            202.978
 Electronic               0.000              0.000              5.381
 Translational            0.889              2.981             44.502
 Rotational               0.889              2.981             35.098
 Vibrational            114.929             94.304            117.997
 Vibration     1          0.593              1.985              6.182
 Vibration     2          0.594              1.983              5.543
 Vibration     3          0.594              1.981              5.265
 Vibration     4          0.594              1.981              5.250
 Vibration     5          0.595              1.979              5.007
 Vibration     6          0.601              1.960              3.793
 Vibration     7          0.601              1.959              3.738
 Vibration     8          0.602              1.957              3.682
 Vibration     9          0.602              1.954              3.598
 Vibration    10          0.604              1.950              3.475
 Vibration    11          0.606              1.942              3.288
 Vibration    12          0.606              1.941              3.268
 Vibration    13          0.609              1.932              3.088
 Vibration    14          0.610              1.928              3.024
 Vibration    15          0.612              1.922              2.924
 Vibration    16          0.615              1.911              2.779
 Vibration    17          0.618              1.902              2.670
 Vibration    18          0.619              1.899              2.625
 Vibration    19          0.620              1.898              2.618
 Vibration    20          0.620              1.896              2.595
 Vibration    21          0.621              1.895              2.583
 Vibration    22          0.626              1.877              2.417
 Vibration    23          0.628              1.871              2.366
 Vibration    24          0.640              1.833              2.089
 Vibration    25          0.644              1.821              2.015
 Vibration    26          0.646              1.815              1.984
 Vibration    27          0.656              1.783              1.818
 Vibration    28          0.659              1.775              1.784
 Vibration    29          0.673              1.732              1.609
 Vibration    30          0.676              1.724              1.579
 Vibration    31          0.678              1.717              1.556
 Vibration    32          0.682              1.704              1.513
 Vibration    33          0.688              1.686              1.456
 Vibration    34          0.690              1.682              1.442
 Vibration    35          0.695              1.666              1.393
 Vibration    36          0.707              1.631              1.300
 Vibration    37          0.712              1.617              1.264
 Vibration    38          0.717              1.602              1.228
 Vibration    39          0.724              1.584              1.186
 Vibration    40          0.725              1.581              1.178
 Vibration    41          0.730              1.567              1.148
 Vibration    42          0.730              1.566              1.147
 Vibration    43          0.751              1.509              1.033
 Vibration    44          0.755              1.498              1.012
 Vibration    45          0.757              1.495              1.006
 Vibration    46          0.926              1.096              0.504
 Vibration    47          0.936              1.077              0.487
 Vibration    48          0.954              1.040              0.456
 Vibration    49          0.967              1.015              0.436

 Normal termination of Gaussian 16 at Mon Jan 23 16:03:53 2023.
