 Gaussian 16, Revision C.02,
 Gaussian 16:  ES64L-G16RevC.02  7-Dec-2021

 ----------------------------------------------------------------------
 #p freq=raman scale=0.967 guess=read geom=allcheck gen um06l int=grid=
 ultrafine scf=(xqc,intrep,maxconventionalcycle=150) pop=(hirshfeld) no
 symm
 ----------------------------------------------------------------------

 Structure from the checkpoint file:  "/scratch1/svicchi/G09-55811.pbs02/02-freq/FeFeFe-A-0xH2O-freq.chk"
 --------------
 FeFeFe-A-0xH2O
 --------------
 Charge =  0 Multiplicity =15

                          Input orientation:
 ---------------------------------------------------------------------
 Center     Atomic      Atomic             Coordinates (Angstroms)
 Number     Number       Type             X           Y           Z
 ---------------------------------------------------------------------
      1          8           0       -1.396531   -2.155054    1.497463
      2          8           0       -1.424930   -0.157920    2.556757
      3          6           0       -1.805663   -1.333358    2.354771
      4          1           0       -2.611140   -1.698287    3.015173
      5          8           0        1.422169   -0.172777   -2.448308
      6          8           0        1.404243   -2.165443   -1.387375
      7          6           0        1.812328   -1.345288   -2.246529
      8          1           0        2.621337   -1.706174   -2.904091
      9          8           0       -1.428899    2.343626    1.186474
     10          8           0       -1.403563   -2.165307   -1.387572
     11          8           0       -1.422999   -0.172363   -2.447965
     12          6           0       -1.812500   -1.345106   -2.246279
     13          1           0       -2.621699   -1.706195   -2.903497
     14          8           0        1.425112   -0.157195    2.556694
     15          8           0        1.397382   -2.154306    1.497361
     16          6           0        1.806222   -1.332525    2.354700
     17          1           0        2.611813   -1.697184    3.015111
     18         26           0       -0.000143    0.971643    1.624782
     19          8           0        1.428199    2.344050    1.186026
     20         26           0       -0.000136    0.952928   -1.522873
     21          8           0        1.423595    2.330128   -1.070103
     22          8           0       -1.423504    2.330457   -1.069657
     23         26           0        0.000255   -1.941620    0.045889
     24          8           0       -0.000152   -0.071915    0.072148
     25          6           0        1.815220    2.721515    0.054422
     26          1           0        2.604057    3.492625    0.048831
     27          6           0       -1.815569    2.721425    0.054846
     28          1           0       -2.604489    3.492449    0.049251
 ---------------------------------------------------------------------

 SCF Done:  E(UM06L) =  -5002.06657963     A.U. after    3 cycles

 Alpha  occ. eigenvalues -- -255.63305-255.62419-255.62001 -30.07907 -30.06852
 Alpha  occ. eigenvalues --  -30.06330 -25.85509 -25.84760 -25.84725 -25.84447
 Alpha  occ. eigenvalues --  -25.84025 -25.83950 -25.83634 -25.83429 -25.82793
 Alpha  occ. eigenvalues --  -18.98729 -18.98729 -18.98708 -18.98707 -18.98674
 Alpha  occ. eigenvalues --  -18.98673 -18.98623 -18.98623 -18.98533 -18.98533
 Alpha  occ. eigenvalues --  -18.98492 -18.98492 -18.97059 -10.18595 -10.18594
 Alpha  occ. eigenvalues --  -10.18431 -10.18430 -10.18414 -10.18414  -3.64801
 Alpha  occ. eigenvalues --   -3.63768  -3.63262  -2.39868  -2.38764  -2.38334
 Alpha  occ. eigenvalues --   -2.38300  -2.38277  -2.37947  -2.37688  -2.36739
 Alpha  occ. eigenvalues --   -2.35973  -1.07409  -1.07159  -1.07043  -1.06906
 Alpha  occ. eigenvalues --   -1.06755  -1.06657  -0.99634  -0.99583  -0.99245
 Alpha  occ. eigenvalues --   -0.99198  -0.99114  -0.99038  -0.94785  -0.60248
 Alpha  occ. eigenvalues --   -0.58999  -0.58919  -0.58744  -0.58709  -0.58492
 Alpha  occ. eigenvalues --   -0.50111  -0.50085  -0.49460  -0.48604  -0.48413
 Alpha  occ. eigenvalues --   -0.48220  -0.48042  -0.48033  -0.47918  -0.47453
 Alpha  occ. eigenvalues --   -0.47077  -0.47034  -0.44949  -0.44548  -0.43876
 Alpha  occ. eigenvalues --   -0.43314  -0.43054  -0.42602  -0.41174  -0.41058
 Alpha  occ. eigenvalues --   -0.39571  -0.38814  -0.38307  -0.38037  -0.37807
 Alpha  occ. eigenvalues --   -0.37616  -0.37222  -0.36749  -0.36599  -0.36356
 Alpha  occ. eigenvalues --   -0.35727  -0.35213  -0.33560  -0.33350  -0.33015
 Alpha  occ. eigenvalues --   -0.30220  -0.30204  -0.29626  -0.29608  -0.29602
 Alpha  occ. eigenvalues --   -0.29551  -0.29272  -0.29231  -0.29110  -0.28455
 Alpha  occ. eigenvalues --   -0.28368  -0.28115  -0.28055  -0.26085  -0.24759
 Alpha  occ. eigenvalues --   -0.23334  -0.23259  -0.22574  -0.22525
 Alpha virt. eigenvalues --   -0.04596  -0.03881  -0.03819  -0.03587  -0.02559
 Alpha virt. eigenvalues --   -0.02442   0.00922   0.01572   0.01890   0.06424
 Alpha virt. eigenvalues --    0.08069   0.08124   0.08485   0.08751   0.08788

  Beta  occ. eigenvalues -- -255.63129-255.62245-255.61830 -29.96704 -29.95781
  Beta  occ. eigenvalues --  -29.95341 -25.77032 -25.76723 -25.76632 -25.75981
  Beta  occ. eigenvalues --  -25.75966 -25.75638 -25.75544 -25.75539 -25.75161
  Beta  occ. eigenvalues --  -18.98431 -18.98430 -18.98409 -18.98408 -18.98402
  Beta  occ. eigenvalues --  -18.98402 -18.98314 -18.98313 -18.98240 -18.98240
  Beta  occ. eigenvalues --  -18.98199 -18.98199 -18.95246 -10.18594 -10.18594
  Beta  occ. eigenvalues --  -10.18441 -10.18441 -10.18430 -10.18430  -3.40627
  Beta  occ. eigenvalues --   -3.39827  -3.39430  -2.15523  -2.15013  -2.14818
  Beta  occ. eigenvalues --   -2.14677  -2.14508  -2.14333  -2.14112  -2.13851
  Beta  occ. eigenvalues --   -2.13459  -1.06816  -1.06558  -1.06431  -1.06327
  Beta  occ. eigenvalues --   -1.06134  -1.06037  -0.98933  -0.98836  -0.98520
  Beta  occ. eigenvalues --   -0.98509  -0.98365  -0.98290  -0.89951  -0.59530
  Beta  occ. eigenvalues --   -0.58467  -0.58391  -0.58080  -0.57860  -0.57800
  Beta  occ. eigenvalues --   -0.48945  -0.48903  -0.47485  -0.47179  -0.47117
  Beta  occ. eigenvalues --   -0.47024  -0.47015  -0.46975  -0.46641  -0.46481
  Beta  occ. eigenvalues --   -0.46289  -0.46232  -0.43359  -0.42516  -0.42358
  Beta  occ. eigenvalues --   -0.41597  -0.40680  -0.40565  -0.37263  -0.36387
  Beta  occ. eigenvalues --   -0.32053  -0.31966  -0.31940  -0.31389  -0.30186
  Beta  occ. eigenvalues --   -0.29957  -0.29894  -0.29861  -0.29763  -0.29322
  Beta  occ. eigenvalues --   -0.29273  -0.28685  -0.28484  -0.28389  -0.28107
  Beta  occ. eigenvalues --   -0.27636  -0.27489  -0.27392  -0.26127  -0.18448
  Beta virt. eigenvalues --   -0.17194  -0.16956  -0.16089  -0.16027  -0.15622
  Beta virt. eigenvalues --   -0.15439  -0.14306  -0.13545  -0.12207  -0.10169
  Beta virt. eigenvalues --   -0.09491  -0.09233  -0.09220  -0.08990  -0.03339

 Mulliken charges and spin densities:
               1          2
     1  O   -0.564149   0.076049
     2  O   -0.557189   0.074630
     3  C    0.686229  -0.009027
     4  H    0.047995   0.017362
     5  O   -0.556808   0.075422
     6  O   -0.556657   0.083926
     7  C    0.685169  -0.013558
     8  H    0.048490   0.016674
     9  O   -0.560321   0.071561
    10  O   -0.556714   0.083931
    11  O   -0.556760   0.075426
    12  C    0.685182  -0.013557
    13  H    0.048494   0.016676
    14  O   -0.557197   0.074640
    15  O   -0.564120   0.076052
    16  C    0.686226  -0.009024
    17  H    0.047996   0.017364
    18  Fe   1.013853   4.138391
    19  O   -0.560333   0.071555
    20  Fe   1.001448   4.114548
    21  O   -0.562536   0.069054
    22  O   -0.562550   0.069047
    23  Fe   1.032391   4.190250
    24  O   -0.757019   0.605002
    25  C    0.695186  -0.000999
    26  H    0.049249   0.014803
    27  C    0.695192  -0.000999
    28  H    0.049252   0.014802
 Sum of Mulliken charges =  -0.00000  14.00000

 Dipole moment (field-independent basis, Debye):
    X=             -0.0003    Y=              0.0053    Z=             -0.0402  Tot=              0.0405
 Quadrupole moment (field-independent basis, Debye-Ang):
   XX=           -140.4392   YY=           -144.1380   ZZ=           -144.9749
   XY=              0.0025   XZ=              0.0007   YZ=             -0.0711

  Exact polarizability:     175.870      -0.009     225.251       0.002       3.481     217.425
 Approx polarizability:     280.875      -0.104     850.709       0.010      26.977     892.362

                      1                      2                      3
                      A                      A                      A
 Frequencies --     29.8907                41.9895                45.7478
 Red. masses --     12.6942                10.2574                10.0637
 Frc consts  --      0.0067                 0.0107                 0.0124
 IR Inten    --      0.0036                 0.0142                 0.0304
 Raman Activ --      0.0141                 0.5440                 0.5917

                      4                      5                      6
                      A                      A                      A
 Frequencies --     84.1585                86.2033               102.5676
 Red. masses --     10.3088                10.6281                 8.7744
 Frc consts  --      0.0430                 0.0465                 0.0544
 IR Inten    --      0.2142                 0.0937                 0.3036
 Raman Activ --      0.0045                 0.0022                 5.9790

                      7                      8                      9
                      A                      A                      A
 Frequencies --    109.2221               110.6801               115.1765
 Red. masses --     12.4948                 6.1296                13.4438
 Frc consts  --      0.0878                 0.0442                 0.1051
 IR Inten    --      0.0012                 0.0012                 0.0020
 Raman Activ --      3.0553                 5.3298                 3.7098

                     10                     11                     12
                      A                      A                      A
 Frequencies --    126.9087               132.8319               147.7932
 Red. masses --      4.3651                 6.6930                 8.8404
 Frc consts  --      0.0414                 0.0696                 0.1138
 IR Inten    --      0.1341                 0.3310                 2.6832
 Raman Activ --     17.5963                 2.0962                 2.2239

                     13                     14                     15
                      A                      A                      A
 Frequencies --    152.9926               154.8763               157.3759
 Red. masses --      8.3239                 9.4087                15.8540
 Frc consts  --      0.1148                 0.1330                 0.2313
 IR Inten    --      0.0652                 0.0048                 2.5183
 Raman Activ --      1.8790                 1.0498                 0.2644

                     16                     17                     18
                      A                      A                      A
 Frequencies --    162.8907               166.1188               167.0068
 Red. masses --     15.8970                 4.8591                17.1522
 Frc consts  --      0.2485                 0.0790                 0.2819
 IR Inten    --     10.3412                 0.0068                 6.9146
 Raman Activ --      1.5283                 0.3793                 0.5767

                     19                     20                     21
                      A                      A                      A
 Frequencies --    196.3966               216.3946               218.8894
 Red. masses --     20.4065                14.3843                16.7987
 Frc consts  --      0.4638                 0.3969                 0.4742
 IR Inten    --      1.7619                 1.0137                 0.7537
 Raman Activ --      0.2768                 1.5130                 1.0343

                     22                     23                     24
                      A                      A                      A
 Frequencies --    234.6755               238.1315               274.6422
 Red. masses --      2.7509                 2.7476                 9.0692
 Frc consts  --      0.0893                 0.0918                 0.4030
 IR Inten    --      0.5006                 0.4377                 0.4896
 Raman Activ --      0.1521                 0.1284                 1.2761

                     25                     26                     27
                      A                      A                      A
 Frequencies --    277.8567               285.6871               289.6248
 Red. masses --      7.7321                 9.3998                 3.4866
 Frc consts  --      0.3517                 0.4520                 0.1723
 IR Inten    --      8.8190                 0.0006                23.6424
 Raman Activ --      3.3682                 3.2376                 5.5541

                     28                     29                     30
                      A                      A                      A
 Frequencies --    292.5318               295.5246               300.8462
 Red. masses --      4.7782                 4.1556                 3.4480
 Frc consts  --      0.2409                 0.2138                 0.1839
 IR Inten    --     32.5477                11.7440                20.4682
 Raman Activ --      2.3340                 6.9273                 3.1799

                     31                     32                     33
                      A                      A                      A
 Frequencies --    334.0181               344.5206               347.3955
 Red. masses --      8.0285                 8.9484                 9.0773
 Frc consts  --      0.5277                 0.6258                 0.6454
 IR Inten    --      4.6467                 5.4569                60.5138
 Raman Activ --     31.0786                 7.4307                 1.3433

                     34                     35                     36
                      A                      A                      A
 Frequencies --    357.4619               362.4237               362.5969
 Red. masses --     10.7835                11.9273                11.8731
 Frc consts  --      0.8118                 0.9230                 0.9197
 IR Inten    --     23.8734                 0.8599                 1.0296
 Raman Activ --      8.5419                 1.9782                 1.8503

                     37                     38                     39
                      A                      A                      A
 Frequencies --    363.1882               398.5765               405.4811
 Red. masses --      9.6822                16.1463                16.3181
 Frc consts  --      0.7525                 1.5113                 1.5807
 IR Inten    --      2.1924               148.2534               293.9503
 Raman Activ --      0.6674                 4.7124                 1.0885

                     40                     41                     42
                      A                      A                      A
 Frequencies --    406.1470               578.5053               599.1319
 Red. masses --     15.4452                16.6262                16.8666
 Frc consts  --      1.5011                 3.2784                 3.5672
 IR Inten    --    137.2124                 3.4471                 0.6341
 Raman Activ --     10.1510                51.6010                 1.2234

                     43                     44                     45
                      A                      A                      A
 Frequencies --    730.9303               734.4424               740.9597
 Red. masses --     11.3194                11.3082                11.3575
 Frc consts  --      3.5631                 3.5938                 3.6738
 IR Inten    --      0.2339                26.2171                54.8846
 Raman Activ --      2.6169                 1.4542                 0.5717

                     46                     47                     48
                      A                      A                      A
 Frequencies --    745.0783               747.0602               751.4266
 Red. masses --     11.4009                11.4478                11.4008
 Frc consts  --      3.7290                 3.7643                 3.7928
 IR Inten    --     28.5251                25.8505                27.3079
 Raman Activ --      5.7147                 7.0526                 5.7992

                     49                     50                     51
                      A                      A                      A
 Frequencies --   1047.8886              1049.6491              1049.7587
 Red. masses --      1.6876                 1.6865                 1.6943
 Frc consts  --      1.0918                 1.0948                 1.1001
 IR Inten    --      0.0010                 0.0495                 0.0000
 Raman Activ --      0.0075                 3.1884                 0.0261

                     52                     53                     54
                      A                      A                      A
 Frequencies --   1051.6361              1055.5669              1057.5959
 Red. masses --      1.6932                 1.6837                 1.6837
 Frc consts  --      1.1033                 1.1053                 1.1095
 IR Inten    --      0.0721                 0.0038                 0.0443
 Raman Activ --      3.8515                 0.0068                 5.4997

                     55                     56                     57
                      A                      A                      A
 Frequencies --   1386.8559              1389.7759              1392.3698
 Red. masses --      7.9791                 9.5108                 8.1805
 Frc consts  --      9.0420                10.8233                 9.3442
 IR Inten    --      3.5539               122.8083               300.4365
 Raman Activ --      3.0979                 3.4884                12.6320

                     58                     59                     60
                      A                      A                      A
 Frequencies --   1394.9250              1395.2553              1396.6218
 Red. masses --      6.6524                 6.4054                 1.1268
 Frc consts  --      7.6266                 7.3469                 1.2950
 IR Inten    --    165.4416               320.2662                 5.2758
 Raman Activ --     15.0858                 0.4365                 3.3210

                     61                     62                     63
                      A                      A                      A
 Frequencies --   1397.6348              1399.0433              1399.7165
 Red. masses --      1.1102                 1.1618                 1.1774
 Frc consts  --      1.2778                 1.3398                 1.3591
 IR Inten    --     32.2454                14.1224                49.5007
 Raman Activ --      5.5666                 6.0382                11.8991

                     64                     65                     66
                      A                      A                      A
 Frequencies --   1400.4021              1401.0635              1403.6748
 Red. masses --      1.1358                 1.1878                 6.2153
 Frc consts  --      1.3124                 1.3738                 7.2152
 IR Inten    --      9.8800                79.3716                31.9177
 Raman Activ --      6.7770                13.0899                16.0976

                     67                     68                     69
                      A                      A                      A
 Frequencies --   1565.0030              1589.9251              1594.8820
 Red. masses --     10.5311                11.3676                11.2047
 Frc consts  --     15.1968                16.9306                16.7922
 IR Inten    --      0.0008                 0.4783                 0.0121
 Raman Activ --      0.0336                23.8177                14.5698

                     70                     71                     72
                      A                      A                      A
 Frequencies --   1597.8194              1629.0499              1640.8401
 Red. masses --     11.3528                11.5466                11.4651
 Frc consts  --     17.0770                18.0539                18.1870
 IR Inten    --      2.6381               509.6938               539.1838
 Raman Activ --      6.8204                 5.8347                15.2036

                     73                     74                     75
                      A                      A                      A
 Frequencies --   2975.7731              2977.3397              2981.0339
 Red. masses --      1.0836                 1.0841                 1.0839
 Frc consts  --      5.6537                 5.6621                 5.6752
 IR Inten    --     81.8704               136.1530                94.9023
 Raman Activ --    313.7613               336.3870               282.2892

                     76                     77                     78
                      A                      A                      A
 Frequencies --   2982.6767              2988.6792              2990.4715
 Red. masses --      1.0844                 1.0844                 1.0849
 Frc consts  --      5.6839                 5.7068                 5.7166
 IR Inten    --    111.2348               100.1866               114.0736
 Raman Activ --    447.1118               290.6540               597.9120

 - Thermochemistry -
 -------------------
 Temperature   298.150 Kelvin.  Pressure   1.00000 Atm.
 Thermochemistry will use frequencies scaled by 0.9670.

 Molecular mass:   453.78566 amu.
 Principal axes and moments of inertia in atomic units:
                           1         2         3
     Eigenvalues --  6585.174776883.186818734.81156
           X           -0.00015   0.00002   1.00000
           Y            0.99776  -0.06682   0.00016
           Z            0.06682   0.99776  -0.00001
 This molecule is an asymmetric top.
 Rotational symmetry number  1.
 Warning -- assumption of classical behavior for rotation
           may cause significant error
 Rotational temperatures (Kelvin)      0.01315     0.01258     0.00992
 Rotational constants (GHZ):           0.27406     0.26220     0.20661
 Zero-point vibrational energy     376580.5 (Joules/Mol)
                                   90.00490 (Kcal/Mol)
 Warning -- explicit consideration of  42 degrees of freedom as
           vibrations may cause significant error
 Vibrational temperatures:     41.59    58.42    63.65   117.09   119.93
          (Kelvin)            142.70   151.96   153.99   160.24   176.57
                              184.81   205.62   212.86   215.48   218.96
                              226.63   231.12   232.36   273.25   301.07
                              304.54   326.50   331.31   382.11   386.58
                              397.48   402.95   407.00   411.16   418.57
                              464.72   479.33   483.33   497.34   504.24
                              504.48   505.30   554.54   564.14   565.07
                              804.87   833.57  1016.94  1021.83  1030.90
                             1036.63  1039.38  1045.46  1457.92  1460.37
                             1460.53  1463.14  1468.61  1471.43  1929.53
                             1933.59  1937.20  1940.76  1941.21  1943.12
                             1944.53  1946.49  1947.42  1948.38  1949.30
                             1952.93  2177.38  2212.06  2218.96  2223.04
                             2266.49  2282.90  4140.19  4142.36  4147.50
                             4149.79  4158.14  4160.63

 Zero-point correction=                           0.143432 (Hartree/Particle)
 Thermal correction to Energy=                    0.169837
 Thermal correction to Enthalpy=                  0.170781
 Thermal correction to Gibbs Free Energy=         0.084514
 Sum of electronic and zero-point Energies=          -5001.923148
 Sum of electronic and thermal Energies=             -5001.896743
 Sum of electronic and thermal Enthalpies=           -5001.895798
 Sum of electronic and thermal Free Energies=        -5001.982066

                     E (Thermal)             CV                S
                      KCal/Mol        Cal/Mol-Kelvin    Cal/Mol-Kelvin
 Total                  106.574             88.475            181.565
 Electronic               0.000              0.000              5.381
 Translational            0.889              2.981             44.226
 Rotational               0.889              2.981             34.337
 Vibrational            104.797             82.513             97.621
 Vibration     1          0.593              1.984              5.903
 Vibration     2          0.594              1.981              5.229
 Vibration     3          0.595              1.980              5.060
 Vibration     4          0.600              1.962              3.857
 Vibration     5          0.600              1.961              3.810
 Vibration     6          0.604              1.950              3.470
 Vibration     7          0.605              1.945              3.348
 Vibration     8          0.606              1.944              3.322
 Vibration     9          0.607              1.940              3.245
 Vibration    10          0.610              1.930              3.057
 Vibration    11          0.611              1.925              2.969
 Vibration    12          0.616              1.910              2.764
 Vibration    13          0.617              1.905              2.699
 Vibration    14          0.618              1.903              2.675
 Vibration    15          0.619              1.900              2.645
 Vibration    16          0.621              1.894              2.579
 Vibration    17          0.622              1.891              2.542
 Vibration    18          0.622              1.890              2.532
 Vibration    19          0.633              1.854              2.229
 Vibration    20          0.642              1.827              2.050
 Vibration    21          0.643              1.823              2.029
 Vibration    22          0.651              1.800              1.903
 Vibration    23          0.652              1.795              1.877
 Vibration    24          0.671              1.736              1.625
 Vibration    25          0.673              1.731              1.605
 Vibration    26          0.678              1.717              1.557
 Vibration    27          0.680              1.710              1.533
 Vibration    28          0.682              1.705              1.516
 Vibration    29          0.684              1.700              1.499
 Vibration    30          0.687              1.691              1.469
 Vibration    31          0.708              1.629              1.295
 Vibration    32          0.715              1.609              1.245
 Vibration    33          0.717              1.604              1.231
 Vibration    34          0.724              1.584              1.186
 Vibration    35          0.727              1.574              1.164
 Vibration    36          0.728              1.574              1.163
 Vibration    37          0.728              1.573              1.161
 Vibration    38          0.754              1.501              1.018
 Vibration    39          0.760              1.487              0.992
 Vibration    40          0.760              1.486              0.990
 Vibration    41          0.915              1.119              0.525
 Vibration    42          0.936              1.076              0.487

 Normal termination of Gaussian 16 at Sun Jan 22 01:11:27 2023.
