 Gaussian 16, Revision C.02,
 Gaussian 16:  ES64L-G16RevC.02  7-Dec-2021

 ----------------------------------------------------------------------
 #p opt=(cartesian,maxcycle=500) gen um06l int=grid=ultrafine scf=(xqc,
 intrep,maxconventionalcycle=150) pop=(hirshfeld) nosymm
 ----------------------------------------------------------------------

 --------------
 FeFeFe-A-0xH2O
 --------------
 Symbolic Z-matrix:
 Charge =  0 Multiplicity =15

 SCF Done:  E(UM06L) =  -5002.06657963     A.U. after   36 cycles

 Alpha  occ. eigenvalues -- -255.63305-255.62419-255.62001 -30.07907 -30.06852
 Alpha  occ. eigenvalues --  -30.06330 -25.85509 -25.84760 -25.84725 -25.84447
 Alpha  occ. eigenvalues --  -25.84025 -25.83950 -25.83634 -25.83429 -25.82793
 Alpha  occ. eigenvalues --  -18.98729 -18.98729 -18.98708 -18.98707 -18.98674
 Alpha  occ. eigenvalues --  -18.98673 -18.98623 -18.98623 -18.98533 -18.98533
 Alpha  occ. eigenvalues --  -18.98492 -18.98492 -18.97059 -10.18595 -10.18594
 Alpha  occ. eigenvalues --  -10.18431 -10.18430 -10.18414 -10.18414  -3.64801
 Alpha  occ. eigenvalues --   -3.63768  -3.63262  -2.39869  -2.38764  -2.38334
 Alpha  occ. eigenvalues --   -2.38300  -2.38277  -2.37947  -2.37688  -2.36739
 Alpha  occ. eigenvalues --   -2.35973  -1.07409  -1.07159  -1.07043  -1.06906
 Alpha  occ. eigenvalues --   -1.06755  -1.06657  -0.99634  -0.99583  -0.99245
 Alpha  occ. eigenvalues --   -0.99198  -0.99114  -0.99038  -0.94785  -0.60248
 Alpha  occ. eigenvalues --   -0.58999  -0.58919  -0.58744  -0.58709  -0.58492
 Alpha  occ. eigenvalues --   -0.50111  -0.50085  -0.49460  -0.48604  -0.48413
 Alpha  occ. eigenvalues --   -0.48220  -0.48042  -0.48033  -0.47918  -0.47453
 Alpha  occ. eigenvalues --   -0.47077  -0.47034  -0.44949  -0.44548  -0.43876
 Alpha  occ. eigenvalues --   -0.43314  -0.43054  -0.42602  -0.41174  -0.41058
 Alpha  occ. eigenvalues --   -0.39571  -0.38814  -0.38307  -0.38037  -0.37807
 Alpha  occ. eigenvalues --   -0.37616  -0.37222  -0.36749  -0.36599  -0.36356
 Alpha  occ. eigenvalues --   -0.35727  -0.35213  -0.33560  -0.33350  -0.33015
 Alpha  occ. eigenvalues --   -0.30220  -0.30204  -0.29626  -0.29608  -0.29602
 Alpha  occ. eigenvalues --   -0.29551  -0.29272  -0.29231  -0.29110  -0.28455
 Alpha  occ. eigenvalues --   -0.28368  -0.28115  -0.28055  -0.26085  -0.24759
 Alpha  occ. eigenvalues --   -0.23334  -0.23259  -0.22574  -0.22525
 Alpha virt. eigenvalues --   -0.04596  -0.03881  -0.03819  -0.03587  -0.02559
 Alpha virt. eigenvalues --   -0.02442   0.00922   0.01572   0.01890   0.06424
 Alpha virt. eigenvalues --    0.08069   0.08124   0.08485   0.08751   0.08788

  Beta  occ. eigenvalues -- -255.63129-255.62245-255.61830 -29.96704 -29.95781
  Beta  occ. eigenvalues --  -29.95341 -25.77032 -25.76723 -25.76632 -25.75981
  Beta  occ. eigenvalues --  -25.75966 -25.75638 -25.75544 -25.75539 -25.75161
  Beta  occ. eigenvalues --  -18.98431 -18.98430 -18.98409 -18.98408 -18.98402
  Beta  occ. eigenvalues --  -18.98402 -18.98314 -18.98313 -18.98240 -18.98240
  Beta  occ. eigenvalues --  -18.98199 -18.98199 -18.95246 -10.18594 -10.18594
  Beta  occ. eigenvalues --  -10.18441 -10.18441 -10.18430 -10.18430  -3.40627
  Beta  occ. eigenvalues --   -3.39827  -3.39430  -2.15523  -2.15013  -2.14818
  Beta  occ. eigenvalues --   -2.14677  -2.14508  -2.14333  -2.14112  -2.13851
  Beta  occ. eigenvalues --   -2.13459  -1.06816  -1.06558  -1.06431  -1.06327
  Beta  occ. eigenvalues --   -1.06134  -1.06037  -0.98933  -0.98836  -0.98520
  Beta  occ. eigenvalues --   -0.98509  -0.98365  -0.98290  -0.89951  -0.59530
  Beta  occ. eigenvalues --   -0.58467  -0.58391  -0.58080  -0.57860  -0.57800
  Beta  occ. eigenvalues --   -0.48945  -0.48903  -0.47485  -0.47179  -0.47117
  Beta  occ. eigenvalues --   -0.47024  -0.47015  -0.46975  -0.46641  -0.46481
  Beta  occ. eigenvalues --   -0.46289  -0.46232  -0.43359  -0.42516  -0.42358
  Beta  occ. eigenvalues --   -0.41597  -0.40680  -0.40565  -0.37263  -0.36387
  Beta  occ. eigenvalues --   -0.32053  -0.31966  -0.31940  -0.31389  -0.30186
  Beta  occ. eigenvalues --   -0.29957  -0.29894  -0.29861  -0.29763  -0.29322
  Beta  occ. eigenvalues --   -0.29273  -0.28685  -0.28484  -0.28389  -0.28107
  Beta  occ. eigenvalues --   -0.27636  -0.27489  -0.27392  -0.26127  -0.18448
  Beta virt. eigenvalues --   -0.17194  -0.16956  -0.16089  -0.16027  -0.15622
  Beta virt. eigenvalues --   -0.15439  -0.14306  -0.13545  -0.12207  -0.10169
  Beta virt. eigenvalues --   -0.09491  -0.09233  -0.09220  -0.08990  -0.03339

 Mulliken charges and spin densities:
               1          2
     1  O   -0.564150   0.076049
     2  O   -0.557189   0.074630
     3  C    0.686229  -0.009027
     4  H    0.047995   0.017362
     5  O   -0.556807   0.075422
     6  O   -0.556657   0.083926
     7  C    0.685169  -0.013558
     8  H    0.048490   0.016674
     9  O   -0.560321   0.071561
    10  O   -0.556714   0.083931
    11  O   -0.556759   0.075426
    12  C    0.685182  -0.013557
    13  H    0.048494   0.016676
    14  O   -0.557197   0.074640
    15  O   -0.564120   0.076052
    16  C    0.686226  -0.009024
    17  H    0.047996   0.017364
    18  Fe   1.013854   4.138392
    19  O   -0.560333   0.071555
    20  Fe   1.001451   4.114551
    21  O   -0.562536   0.069054
    22  O   -0.562550   0.069047
    23  Fe   1.032386   4.190245
    24  O   -0.757019   0.605002
    25  C    0.695186  -0.000999
    26  H    0.049249   0.014803
    27  C    0.695192  -0.000999
    28  H    0.049252   0.014802
 Sum of Mulliken charges =  -0.00000  14.00000

 Dipole moment (field-independent basis, Debye):
    X=             -0.0003    Y=              0.0053    Z=             -0.0402  Tot=              0.0406
 Quadrupole moment (field-independent basis, Debye-Ang):
   XX=           -140.4392   YY=           -144.1381   ZZ=           -144.9748
   XY=              0.0025   XZ=              0.0007   YZ=             -0.0711

 Optimization completed.
    -- Stationary point found.

                          Input orientation:
 ---------------------------------------------------------------------
 Center     Atomic      Atomic             Coordinates (Angstroms)
 Number     Number       Type             X           Y           Z
 ---------------------------------------------------------------------
      1          8           0       -1.396531   -2.155054    1.497463
      2          8           0       -1.424930   -0.157920    2.556757
      3          6           0       -1.805663   -1.333358    2.354771
      4          1           0       -2.611140   -1.698287    3.015173
      5          8           0        1.422169   -0.172777   -2.448308
      6          8           0        1.404243   -2.165443   -1.387375
      7          6           0        1.812328   -1.345288   -2.246529
      8          1           0        2.621337   -1.706174   -2.904091
      9          8           0       -1.428899    2.343626    1.186474
     10          8           0       -1.403563   -2.165307   -1.387572
     11          8           0       -1.422999   -0.172363   -2.447965
     12          6           0       -1.812500   -1.345106   -2.246279
     13          1           0       -2.621699   -1.706195   -2.903497
     14          8           0        1.425112   -0.157195    2.556694
     15          8           0        1.397382   -2.154306    1.497361
     16          6           0        1.806222   -1.332525    2.354700
     17          1           0        2.611813   -1.697184    3.015111
     18         26           0       -0.000143    0.971643    1.624782
     19          8           0        1.428199    2.344050    1.186026
     20         26           0       -0.000136    0.952928   -1.522873
     21          8           0        1.423595    2.330128   -1.070103
     22          8           0       -1.423504    2.330457   -1.069657
     23         26           0        0.000255   -1.941620    0.045889
     24          8           0       -0.000152   -0.071915    0.072148
     25          6           0        1.815220    2.721515    0.054422
     26          1           0        2.604057    3.492625    0.048831
     27          6           0       -1.815569    2.721425    0.054846
     28          1           0       -2.604489    3.492449    0.049251
 ---------------------------------------------------------------------

 Normal termination of Gaussian 16 at Sat Jan 21 15:34:58 2023.
