 Gaussian 16, Revision C.02,
 Gaussian 16:  ES64L-G16RevC.02  7-Dec-2021

 ----------------------------------------------------------------------
 #p opt=(cartesian,maxcycle=500) gen um06l int=grid=ultrafine scf=(xqc,
 intrep,maxconventionalcycle=150) pop=(hirshfeld) nosymm
 ----------------------------------------------------------------------

 ---
 N2O
 ---
 Symbolic Z-matrix:
 Charge =  0 Multiplicity = 1

 SCF Done:  E(UM06L) =  -184.733925686     A.U. after   15 cycles
 SCF Done:  E(UM06L) =  -184.734141620     A.U. after   10 cycles
 SCF Done:  E(UM06L) =  -184.734160069     A.U. after    9 cycles
 Optimization completed.
    -- Stationary point found.

                          Input orientation:
 ---------------------------------------------------------------------
 Center     Atomic      Atomic             Coordinates (Angstroms)
 Number     Number       Type             X           Y           Z
 ---------------------------------------------------------------------
      1          7           0       -4.421500    0.060438    0.096358
      2          7           0       -5.116765   -0.827467    0.113044
      3          8           0       -3.697562    0.985668    0.078985
 ---------------------------------------------------------------------

 Alpha  occ. eigenvalues --  -19.06449 -14.38855 -14.25663  -1.21317  -1.03930
 Alpha  occ. eigenvalues --   -0.57464  -0.52540  -0.52540  -0.43732  -0.31102
 Alpha  occ. eigenvalues --   -0.31102
 Alpha virt. eigenvalues --   -0.03536  -0.03536   0.08446   0.24326   0.31199
 Alpha virt. eigenvalues --    0.32181   0.32181   0.35668   0.43235   0.43235
 Alpha virt. eigenvalues --    0.43585   0.55129   0.55129   0.69356   0.79094

  Beta  occ. eigenvalues --  -19.06449 -14.38855 -14.25663  -1.21317  -1.03930
  Beta  occ. eigenvalues --   -0.57464  -0.52540  -0.52540  -0.43732  -0.31102
  Beta  occ. eigenvalues --   -0.31102
  Beta virt. eigenvalues --   -0.03536  -0.03536   0.08446   0.24326   0.31199
  Beta virt. eigenvalues --    0.32181   0.32181   0.35668   0.43235   0.43235
  Beta virt. eigenvalues --    0.43585   0.55129   0.55129   0.69356   0.79094

 Mulliken charges and spin densities:
               1          2
     1  N    0.551004   0.000000
     2  N   -0.106521   0.000000
     3  O   -0.444483   0.000000
 Sum of Mulliken charges =  -0.00000   0.00000

 Dipole moment (field-independent basis, Debye):
    X=              0.1037    Y=              0.1321    Z=             -0.0025  Tot=              0.1680
 Quadrupole moment (field-independent basis, Debye-Ang):
   XX=            -17.2837   YY=            -17.2529   ZZ=            -14.9411
   XY=             -2.4008   XZ=              0.0553   YZ=              0.0563

 Normal termination of Gaussian 16 at Sun Apr  2 13:02:32 2023.
