 Gaussian 16, Revision C.02,
 Gaussian 16:  ES64L-G16RevC.02  7-Dec-2021

 ----------------------------------------------------------------------
 #p freq=raman scale=0.967 guess=read geom=allcheck gen um06l int=grid=
 ultrafine scf=(xqc,intrep,maxconventionalcycle=150) pop=(hirshfeld) no
 symm
 ----------------------------------------------------------------------

 Structure from the checkpoint file:  "/scratch1/svicchi/G09-383069.pbs02/02-freq/N2O-freq.chk"
 ---
 N2O
 ---
 Charge =  0 Multiplicity = 1

                          Input orientation:
 ---------------------------------------------------------------------
 Center     Atomic      Atomic             Coordinates (Angstroms)
 Number     Number       Type             X           Y           Z
 ---------------------------------------------------------------------
      1          7           0       -4.421500    0.060438    0.096358
      2          7           0       -5.116765   -0.827467    0.113044
      3          8           0       -3.697562    0.985668    0.078985
 ---------------------------------------------------------------------

 SCF Done:  E(UM06L) =  -184.734160069     A.U. after    1 cycles

 Alpha  occ. eigenvalues --  -19.06449 -14.38855 -14.25663  -1.21317  -1.03930
 Alpha  occ. eigenvalues --   -0.57464  -0.52540  -0.52540  -0.43732  -0.31102
 Alpha  occ. eigenvalues --   -0.31102
 Alpha virt. eigenvalues --   -0.03536  -0.03536   0.08446   0.24326   0.31199
 Alpha virt. eigenvalues --    0.32181   0.32181   0.35668   0.43235   0.43235
 Alpha virt. eigenvalues --    0.43585   0.55129   0.55129   0.69356   0.79094

  Beta  occ. eigenvalues --  -19.06449 -14.38855 -14.25663  -1.21317  -1.03930
  Beta  occ. eigenvalues --   -0.57464  -0.52540  -0.52540  -0.43732  -0.31102
  Beta  occ. eigenvalues --   -0.31102
  Beta virt. eigenvalues --   -0.03536  -0.03536   0.08446   0.24326   0.31199
  Beta virt. eigenvalues --    0.32181   0.32181   0.35668   0.43235   0.43235
  Beta virt. eigenvalues --    0.43585   0.55129   0.55129   0.69356   0.79094

 Mulliken charges and spin densities:
               1          2
     1  N    0.551004   0.000000
     2  N   -0.106522   0.000000
     3  O   -0.444483   0.000000
 Sum of Mulliken charges =  -0.00000   0.00000

 Dipole moment (field-independent basis, Debye):
    X=              0.1037    Y=              0.1321    Z=             -0.0025  Tot=              0.1680
 Quadrupole moment (field-independent basis, Debye-Ang):
   XX=            -17.2837   YY=            -17.2529   ZZ=            -14.9411
   XY=             -2.4009   XZ=              0.0553   YZ=              0.0563

  Exact polarizability:      17.899      10.175      22.933      -0.191      -0.244       9.939
 Approx polarizability:      41.327      34.944      58.613      -0.656      -0.839      13.989

                      1                      2                      3
                      A                      A                      A
 Frequencies --    638.1569              1368.3867              2384.1549
 Red. masses --     14.2567                15.0707                14.1220
 Frc consts  --      3.4208                16.6265                47.2950
 IR Inten    --      5.2150                52.3819               377.0172
 Raman Activ --      0.1973                18.4909                 8.6572

 - Thermochemistry -
 -------------------
 Temperature   298.150 Kelvin.  Pressure   1.00000 Atm.
 Thermochemistry will use frequencies scaled by 0.9670.

 Molecular mass:    44.00106 amu.
 Principal axes and moments of inertia in atomic units:
                           1         2         3
     Eigenvalues --     0.00000 141.72891 141.72891
           X            0.61630   0.78714   0.02423
           Y            0.78737  -0.61648  -0.00019
           Z           -0.01479  -0.01919   0.99971
 This molecule is an asymmetric top.
 Rotational symmetry number  1.
 Rotational temperatures (Kelvin) ************     0.61112     0.61112
 Rotational constants (GHZ):      ************    12.73375    12.73375
 Zero-point vibrational energy      25395.6 (Joules/Mol)
                                    6.06968 (Kcal/Mol)
 Warning -- explicit consideration of   1 degrees of freedom as
           vibrations may cause significant error
 Vibrational temperatures:    887.87  1903.83  3317.07
          (Kelvin)

 Zero-point correction=                           0.009673 (Hartree/Particle)
 Thermal correction to Energy=                    0.012666
 Thermal correction to Enthalpy=                  0.013611
 Thermal correction to Gibbs Free Energy=        -0.006381
 Sum of electronic and zero-point Energies=           -184.724487
 Sum of electronic and thermal Energies=              -184.721494
 Sum of electronic and thermal Enthalpies=            -184.720550
 Sum of electronic and thermal Free Energies=         -184.740541

                     E (Thermal)             CV                S
                      KCal/Mol        Cal/Mol-Kelvin    Cal/Mol-Kelvin
 Total                    7.948              7.098             42.076
 Electronic               0.000              0.000              0.000
 Translational            0.889              2.981             37.271
 Rotational               0.889              2.981              4.359
 Vibrational              6.171              1.136              0.446
 Vibration     1          0.977              0.996              0.421

 Optimization completed.
    -- Stationary point found.
 Normal termination of Gaussian 16 at Sun Apr  2 13:06:22 2023.
