 Gaussian 16, Revision C.02,
 Gaussian 16:  ES64L-G16RevC.02  7-Dec-2021

 ----------------------------------------------------------------------
 #p opt=(cartesian,maxcycle=500) gen um06l int=grid=ultrafine scf=(xqc,
 intrep,maxconventionalcycle=150) pop=(hirshfeld) nosymm
 ----------------------------------------------------------------------

 --------------
 FeFeFe-A-1xH2O
 --------------
 Symbolic Z-matrix:
 Charge =  0 Multiplicity =15

 SCF Done:  E(UM06L) =  -5078.54307847     A.U. after   36 cycles
 SCF Done:  E(UM06L) =  -5078.54309645     A.U. after   14 cycles
 SCF Done:  E(UM06L) =  -5078.54292087     A.U. after   21 cycles
 SCF Done:  E(UM06L) =  -5078.54315462     A.U. after   21 cycles
 SCF Done:  E(UM06L) =  -5078.54293955     A.U. after   21 cycles
 SCF Done:  E(UM06L) =  -5078.54324674     A.U. after   21 cycles
 SCF Done:  E(UM06L) =  -5078.54339534     A.U. after   23 cycles
 SCF Done:  E(UM06L) =  -5078.54345173     A.U. after   25 cycles
 SCF Done:  E(UM06L) =  -5078.54347329     A.U. after   20 cycles
 SCF Done:  E(UM06L) =  -5078.54348599     A.U. after   19 cycles
 SCF Done:  E(UM06L) =  -5078.54373383     A.U. after   20 cycles
 SCF Done:  E(UM06L) =  -5078.54373511     A.U. after   21 cycles
 SCF Done:  E(UM06L) =  -5078.54373571     A.U. after   20 cycles
 SCF Done:  E(UM06L) =  -5078.54373615     A.U. after   20 cycles
 SCF Done:  E(UM06L) =  -5078.54373675     A.U. after   20 cycles
 SCF Done:  E(UM06L) =  -5078.54373713     A.U. after   21 cycles
 SCF Done:  E(UM06L) =  -5078.54373740     A.U. after   21 cycles
 SCF Done:  E(UM06L) =  -5078.54373774     A.U. after   20 cycles
 SCF Done:  E(UM06L) =  -5078.54373805     A.U. after   19 cycles
 SCF Done:  E(UM06L) =  -5078.54373818     A.U. after   20 cycles
 Optimization completed.
    -- Stationary point found.

                          Input orientation:
 ---------------------------------------------------------------------
 Center     Atomic      Atomic             Coordinates (Angstroms)
 Number     Number       Type             X           Y           Z
 ---------------------------------------------------------------------
      1          8           0        1.527010   -2.174420   -1.528538
      2          8           0       -0.716556   -2.276490   -1.333280
      3          6           0        0.388585   -2.608730   -1.822767
      4          1           0        0.354601   -3.375407   -2.615179
      5          8           0        1.936820    2.209194    1.439928
      6          8           0        3.104092    0.295101    1.197619
      7          6           0        2.888801    1.431265    1.682187
      8          1           0        3.629974    1.788879    2.417150
      9          8           0       -2.219574    0.126871   -1.204665
     10          8           0        2.827228    0.342818   -1.630797
     11          8           0        1.734384    2.302238   -1.404736
     12          6           0        2.565778    1.528141   -1.937278
     13          1           0        3.139699    1.940496   -2.786017
     14          8           0       -0.475477   -2.304180    1.478768
     15          8           0        1.768498   -2.209668    1.284965
     16          6           0        0.695786   -2.650457    1.760679
     17          1           0        0.795169   -3.437652    2.527157
     18         26           0       -1.106564   -0.921728    0.128650
     19          8           0       -2.024296    0.072394    1.629383
     20         26           0        0.355749    2.069796    0.180428
     21          8           0       -1.006923    2.083988    1.678007
     22          8           0       -1.268000    2.170842   -1.160997
     23         26           0        2.039676   -0.784742   -0.139459
     24          8           0        0.426307    0.157100    0.020219
     25          6           0       -1.833355    1.229153    2.073779
     26          1           0       -2.471209    1.530016    2.922246
     27          6           0       -2.108963    1.324943   -1.550493
     28          1           0       -2.844665    1.678176   -2.294592
     29          8           0        0.242402    4.200359   -0.214244
     30          1           0        0.951239    4.265593   -0.871917
     31          1           0       -0.574426    4.218000   -0.734789
 ---------------------------------------------------------------------

 Alpha  occ. eigenvalues -- -255.61947-255.61938-255.61890 -30.06446 -30.06414
 Alpha  occ. eigenvalues --  -30.06386 -25.84178 -25.84135 -25.84024 -25.83544
 Alpha  occ. eigenvalues --  -25.83347 -25.83277 -25.83129 -25.83068 -25.82948
 Alpha  occ. eigenvalues --  -19.02758 -18.98013 -18.98000 -18.97996 -18.97994
 Alpha  occ. eigenvalues --  -18.97978 -18.97975 -18.97953 -18.97926 -18.97916
 Alpha  occ. eigenvalues --  -18.97913 -18.97876 -18.97861 -18.96226 -10.17791
 Alpha  occ. eigenvalues --  -10.17747 -10.17745 -10.17711 -10.17656 -10.17655
 Alpha  occ. eigenvalues --   -3.63416  -3.63355  -3.63298  -2.38689  -2.38654
 Alpha  occ. eigenvalues --   -2.38539  -2.37498  -2.36953  -2.36874  -2.36547
 Alpha  occ. eigenvalues --   -2.36482  -2.36301  -1.06739  -1.06479  -1.06442
 Alpha  occ. eigenvalues --   -1.06169  -1.06106  -1.06079  -1.04867  -0.98935
 Alpha  occ. eigenvalues --   -0.98862  -0.98579  -0.98459  -0.98436  -0.98365
 Alpha  occ. eigenvalues --   -0.93869  -0.59517  -0.58471  -0.58242  -0.58086
 Alpha  occ. eigenvalues --   -0.57964  -0.57839  -0.54860  -0.49387  -0.49347
 Alpha  occ. eigenvalues --   -0.48539  -0.47875  -0.47782  -0.47549  -0.47435
 Alpha  occ. eigenvalues --   -0.47375  -0.47367  -0.46618  -0.46451  -0.46363
 Alpha  occ. eigenvalues --   -0.44951  -0.43746  -0.43736  -0.42642  -0.42470
 Alpha  occ. eigenvalues --   -0.41833  -0.41614  -0.40490  -0.40398  -0.38989
 Alpha  occ. eigenvalues --   -0.38136  -0.37497  -0.37359  -0.37199  -0.36847
 Alpha  occ. eigenvalues --   -0.36832  -0.36363  -0.36022  -0.35874  -0.35732
 Alpha  occ. eigenvalues --   -0.34495  -0.33868  -0.32813  -0.32733  -0.32154
 Alpha  occ. eigenvalues --   -0.29621  -0.29486  -0.28984  -0.28969  -0.28912
 Alpha  occ. eigenvalues --   -0.28760  -0.28595  -0.28521  -0.27912  -0.27741
 Alpha  occ. eigenvalues --   -0.27721  -0.27551  -0.27405  -0.25392  -0.24282
 Alpha  occ. eigenvalues --   -0.22989  -0.22471  -0.22208  -0.21750
 Alpha virt. eigenvalues --   -0.03902  -0.03239  -0.03189  -0.02881  -0.01909
 Alpha virt. eigenvalues --   -0.01799   0.01525   0.02523   0.02788   0.07139
 Alpha virt. eigenvalues --    0.07582   0.07865   0.08759   0.08870   0.08952

  Beta  occ. eigenvalues -- -255.61782-255.61762-255.61715 -29.95310 -29.95260
  Beta  occ. eigenvalues --  -29.95140 -25.75729 -25.75682 -25.75448 -25.75269
  Beta  occ. eigenvalues --  -25.75262 -25.75207 -25.75202 -25.75153 -25.75061
  Beta  occ. eigenvalues --  -19.02600 -18.97709 -18.97707 -18.97698 -18.97685
  Beta  occ. eigenvalues --  -18.97680 -18.97678 -18.97628 -18.97625 -18.97625
  Beta  occ. eigenvalues --  -18.97608 -18.97600 -18.97598 -18.94487 -10.17806
  Beta  occ. eigenvalues --  -10.17772 -10.17771 -10.17726 -10.17686 -10.17683
  Beta  occ. eigenvalues --   -3.39398  -3.39354  -3.39049  -2.14484  -2.14428
  Beta  occ. eigenvalues --   -2.13810  -2.13676  -2.13615  -2.13582  -2.13491
  Beta  occ. eigenvalues --   -2.13457  -2.13252  -1.06158  -1.05907  -1.05858
  Beta  occ. eigenvalues --   -1.05590  -1.05517  -1.05488  -1.04528  -0.98223
  Beta  occ. eigenvalues --   -0.98131  -0.97860  -0.97751  -0.97713  -0.97631
  Beta  occ. eigenvalues --   -0.89182  -0.58858  -0.58005  -0.57736  -0.57420
  Beta  occ. eigenvalues --   -0.57298  -0.57153  -0.54571  -0.48276  -0.48213
  Beta  occ. eigenvalues --   -0.47014  -0.46635  -0.46510  -0.46488  -0.46293
  Beta  occ. eigenvalues --   -0.46273  -0.45928  -0.45649  -0.45553  -0.45528
  Beta  occ. eigenvalues --   -0.42782  -0.42182  -0.41849  -0.41754  -0.40928
  Beta  occ. eigenvalues --   -0.40065  -0.39961  -0.36377  -0.35883  -0.34570
  Beta  occ. eigenvalues --   -0.31396  -0.31374  -0.31229  -0.30618  -0.29525
  Beta  occ. eigenvalues --   -0.29251  -0.29136  -0.29114  -0.28959  -0.28625
  Beta  occ. eigenvalues --   -0.28584  -0.27996  -0.27857  -0.27768  -0.27521
  Beta  occ. eigenvalues --   -0.26940  -0.26869  -0.26817  -0.25516  -0.17507
  Beta virt. eigenvalues --   -0.16072  -0.15970  -0.15543  -0.15405  -0.15239
  Beta virt. eigenvalues --   -0.14784  -0.14159  -0.12390  -0.11493  -0.09190
  Beta virt. eigenvalues --   -0.09078  -0.08157  -0.07948  -0.07813  -0.02867

 Mulliken charges and spin densities:
               1          2
     1  O   -0.559072   0.073744
     2  O   -0.559534   0.073367
     3  C    0.688854  -0.011925
     4  H    0.045416   0.016011
     5  O   -0.564625   0.083135
     6  O   -0.557564   0.083371
     7  C    0.685155  -0.019311
     8  H    0.044835   0.018253
     9  O   -0.554878   0.077606
    10  O   -0.555142   0.077359
    11  O   -0.626459   0.066963
    12  C    0.701762  -0.016795
    13  H    0.036785   0.017301
    14  O   -0.559387   0.073696
    15  O   -0.559119   0.074036
    16  C    0.689952  -0.011260
    17  H    0.045198   0.016192
    18  Fe   1.011816   4.149372
    19  O   -0.557003   0.083473
    20  Fe   1.023213   4.163429
    21  O   -0.564224   0.084248
    22  O   -0.623193   0.068440
    23  Fe   1.013168   4.151350
    24  O   -0.795915   0.575538
    25  C    0.684225  -0.020500
    26  H    0.044904   0.018263
    27  C    0.700540  -0.017463
    28  H    0.036888   0.017362
    29  O   -0.563784   0.034225
    30  H    0.373638   0.000225
    31  H    0.373552   0.000299
 Sum of Mulliken charges =  -0.00000  14.00000

 Dipole moment (field-independent basis, Debye):
    X=             -0.2256    Y=              2.2803    Z=             -1.3580  Tot=              2.6636
 Quadrupole moment (field-independent basis, Debye-Ang):
   XX=           -152.3856   YY=           -141.2823   ZZ=           -147.6754
   XY=             -0.2378   XZ=              0.1562   YZ=             -8.0352

 Normal termination of Gaussian 16 at Mon Jan 30 03:10:11 2023.
