 Gaussian 16, Revision C.02,
 Gaussian 16:  ES64L-G16RevC.02  7-Dec-2021

 ----------------------------------------------------------------------
 #p freq=raman scale=0.967 guess=read geom=allcheck gen um06l int=grid=
 ultrafine scf=(xqc,intrep,maxconventionalcycle=150) pop=(hirshfeld) no
 symm
 ----------------------------------------------------------------------

 Structure from the checkpoint file:  "/scratch1/svicchi/G09-78655.pbs02/02-freq/FeFeFe-A-1xH2O-freq.chk"
 --------------
 FeFeFe-A-1xH2O
 --------------
 Charge =  0 Multiplicity =15

                          Input orientation:
 ---------------------------------------------------------------------
 Center     Atomic      Atomic             Coordinates (Angstroms)
 Number     Number       Type             X           Y           Z
 ---------------------------------------------------------------------
      1          8           0        1.527010   -2.174420   -1.528538
      2          8           0       -0.716556   -2.276490   -1.333280
      3          6           0        0.388585   -2.608730   -1.822767
      4          1           0        0.354601   -3.375407   -2.615179
      5          8           0        1.936820    2.209194    1.439928
      6          8           0        3.104092    0.295101    1.197619
      7          6           0        2.888801    1.431265    1.682187
      8          1           0        3.629974    1.788879    2.417150
      9          8           0       -2.219574    0.126871   -1.204665
     10          8           0        2.827228    0.342818   -1.630797
     11          8           0        1.734384    2.302238   -1.404736
     12          6           0        2.565778    1.528141   -1.937278
     13          1           0        3.139699    1.940496   -2.786017
     14          8           0       -0.475477   -2.304180    1.478768
     15          8           0        1.768498   -2.209668    1.284965
     16          6           0        0.695786   -2.650457    1.760679
     17          1           0        0.795169   -3.437652    2.527157
     18         26           0       -1.106564   -0.921728    0.128650
     19          8           0       -2.024296    0.072394    1.629383
     20         26           0        0.355749    2.069796    0.180428
     21          8           0       -1.006923    2.083988    1.678007
     22          8           0       -1.268000    2.170842   -1.160997
     23         26           0        2.039676   -0.784742   -0.139459
     24          8           0        0.426307    0.157100    0.020219
     25          6           0       -1.833355    1.229153    2.073779
     26          1           0       -2.471209    1.530016    2.922246
     27          6           0       -2.108963    1.324943   -1.550493
     28          1           0       -2.844665    1.678176   -2.294592
     29          8           0        0.242402    4.200359   -0.214244
     30          1           0        0.951239    4.265593   -0.871917
     31          1           0       -0.574426    4.218000   -0.734789
 ---------------------------------------------------------------------

 SCF Done:  E(UM06L) =  -5078.54373818     A.U. after    3 cycles

 Alpha  occ. eigenvalues -- -255.61947-255.61938-255.61890 -30.06446 -30.06414
 Alpha  occ. eigenvalues --  -30.06386 -25.84178 -25.84135 -25.84024 -25.83544
 Alpha  occ. eigenvalues --  -25.83347 -25.83277 -25.83129 -25.83068 -25.82948
 Alpha  occ. eigenvalues --  -19.02758 -18.98013 -18.98000 -18.97996 -18.97994
 Alpha  occ. eigenvalues --  -18.97978 -18.97975 -18.97953 -18.97926 -18.97916
 Alpha  occ. eigenvalues --  -18.97913 -18.97876 -18.97861 -18.96226 -10.17791
 Alpha  occ. eigenvalues --  -10.17747 -10.17745 -10.17711 -10.17656 -10.17655
 Alpha  occ. eigenvalues --   -3.63416  -3.63355  -3.63298  -2.38689  -2.38654
 Alpha  occ. eigenvalues --   -2.38539  -2.37498  -2.36953  -2.36874  -2.36547
 Alpha  occ. eigenvalues --   -2.36482  -2.36301  -1.06739  -1.06479  -1.06442
 Alpha  occ. eigenvalues --   -1.06169  -1.06106  -1.06079  -1.04867  -0.98935
 Alpha  occ. eigenvalues --   -0.98862  -0.98579  -0.98459  -0.98436  -0.98365
 Alpha  occ. eigenvalues --   -0.93869  -0.59517  -0.58471  -0.58242  -0.58086
 Alpha  occ. eigenvalues --   -0.57964  -0.57839  -0.54860  -0.49387  -0.49347
 Alpha  occ. eigenvalues --   -0.48539  -0.47875  -0.47782  -0.47549  -0.47435
 Alpha  occ. eigenvalues --   -0.47375  -0.47367  -0.46618  -0.46451  -0.46363
 Alpha  occ. eigenvalues --   -0.44951  -0.43746  -0.43736  -0.42642  -0.42470
 Alpha  occ. eigenvalues --   -0.41833  -0.41614  -0.40490  -0.40398  -0.38989
 Alpha  occ. eigenvalues --   -0.38136  -0.37497  -0.37359  -0.37199  -0.36847
 Alpha  occ. eigenvalues --   -0.36832  -0.36363  -0.36022  -0.35874  -0.35732
 Alpha  occ. eigenvalues --   -0.34495  -0.33868  -0.32813  -0.32733  -0.32154
 Alpha  occ. eigenvalues --   -0.29621  -0.29486  -0.28984  -0.28969  -0.28912
 Alpha  occ. eigenvalues --   -0.28760  -0.28595  -0.28521  -0.27912  -0.27741
 Alpha  occ. eigenvalues --   -0.27721  -0.27551  -0.27405  -0.25392  -0.24282
 Alpha  occ. eigenvalues --   -0.22989  -0.22471  -0.22208  -0.21750
 Alpha virt. eigenvalues --   -0.03902  -0.03239  -0.03189  -0.02881  -0.01909
 Alpha virt. eigenvalues --   -0.01799   0.01525   0.02523   0.02788   0.07139
 Alpha virt. eigenvalues --    0.07582   0.07865   0.08759   0.08870   0.08952

  Beta  occ. eigenvalues -- -255.61782-255.61762-255.61715 -29.95310 -29.95260
  Beta  occ. eigenvalues --  -29.95140 -25.75729 -25.75682 -25.75448 -25.75269
  Beta  occ. eigenvalues --  -25.75262 -25.75207 -25.75202 -25.75153 -25.75061
  Beta  occ. eigenvalues --  -19.02600 -18.97709 -18.97707 -18.97698 -18.97685
  Beta  occ. eigenvalues --  -18.97680 -18.97678 -18.97628 -18.97625 -18.97625
  Beta  occ. eigenvalues --  -18.97608 -18.97600 -18.97598 -18.94487 -10.17806
  Beta  occ. eigenvalues --  -10.17772 -10.17771 -10.17726 -10.17686 -10.17683
  Beta  occ. eigenvalues --   -3.39398  -3.39354  -3.39049  -2.14484  -2.14428
  Beta  occ. eigenvalues --   -2.13810  -2.13676  -2.13615  -2.13582  -2.13491
  Beta  occ. eigenvalues --   -2.13457  -2.13252  -1.06158  -1.05907  -1.05858
  Beta  occ. eigenvalues --   -1.05590  -1.05517  -1.05488  -1.04528  -0.98223
  Beta  occ. eigenvalues --   -0.98131  -0.97860  -0.97751  -0.97713  -0.97631
  Beta  occ. eigenvalues --   -0.89182  -0.58858  -0.58005  -0.57736  -0.57420
  Beta  occ. eigenvalues --   -0.57298  -0.57153  -0.54571  -0.48276  -0.48213
  Beta  occ. eigenvalues --   -0.47014  -0.46635  -0.46510  -0.46488  -0.46293
  Beta  occ. eigenvalues --   -0.46273  -0.45928  -0.45649  -0.45553  -0.45528
  Beta  occ. eigenvalues --   -0.42782  -0.42182  -0.41849  -0.41754  -0.40928
  Beta  occ. eigenvalues --   -0.40065  -0.39961  -0.36377  -0.35883  -0.34570
  Beta  occ. eigenvalues --   -0.31396  -0.31374  -0.31229  -0.30618  -0.29525
  Beta  occ. eigenvalues --   -0.29251  -0.29136  -0.29114  -0.28959  -0.28625
  Beta  occ. eigenvalues --   -0.28584  -0.27996  -0.27857  -0.27768  -0.27521
  Beta  occ. eigenvalues --   -0.26940  -0.26869  -0.26817  -0.25516  -0.17507
  Beta virt. eigenvalues --   -0.16072  -0.15970  -0.15543  -0.15405  -0.15239
  Beta virt. eigenvalues --   -0.14784  -0.14159  -0.12390  -0.11493  -0.09190
  Beta virt. eigenvalues --   -0.09078  -0.08157  -0.07948  -0.07813  -0.02867

 Mulliken charges and spin densities:
               1          2
     1  O   -0.559072   0.073744
     2  O   -0.559534   0.073367
     3  C    0.688854  -0.011925
     4  H    0.045416   0.016011
     5  O   -0.564625   0.083135
     6  O   -0.557564   0.083371
     7  C    0.685155  -0.019311
     8  H    0.044835   0.018253
     9  O   -0.554878   0.077606
    10  O   -0.555142   0.077359
    11  O   -0.626459   0.066963
    12  C    0.701763  -0.016795
    13  H    0.036785   0.017301
    14  O   -0.559387   0.073696
    15  O   -0.559119   0.074036
    16  C    0.689952  -0.011260
    17  H    0.045198   0.016192
    18  Fe   1.011815   4.149371
    19  O   -0.557003   0.083473
    20  Fe   1.023212   4.163428
    21  O   -0.564224   0.084248
    22  O   -0.623193   0.068440
    23  Fe   1.013169   4.151352
    24  O   -0.795915   0.575538
    25  C    0.684225  -0.020500
    26  H    0.044904   0.018263
    27  C    0.700540  -0.017463
    28  H    0.036888   0.017362
    29  O   -0.563784   0.034225
    30  H    0.373638   0.000225
    31  H    0.373552   0.000299
 Sum of Mulliken charges =  -0.00000  14.00000

 Dipole moment (field-independent basis, Debye):
    X=             -0.2256    Y=              2.2803    Z=             -1.3580  Tot=              2.6636
 Quadrupole moment (field-independent basis, Debye-Ang):
   XX=           -152.3856   YY=           -141.2823   ZZ=           -147.6754
   XY=             -0.2378   XZ=              0.1562   YZ=             -8.0352

  Exact polarizability:     229.249      -0.785     242.852      -4.080       1.840     182.763
 Approx polarizability:     956.982       0.666    1011.373     -58.468      48.308     302.755

                      1                      2                      3
                      A                      A                      A
 Frequencies --     28.0327                39.7844                46.3008
 Red. masses --     10.5610                 8.8676                10.9960
 Frc consts  --      0.0049                 0.0083                 0.0139
 IR Inten    --      0.2430                 0.0296                 0.0501
 Raman Activ --      0.0218                 0.2817                 0.8050

                      4                      5                      6
                      A                      A                      A
 Frequencies --     80.7469                85.5244                88.3880
 Red. masses --      6.7557                10.5090                 7.7156
 Frc consts  --      0.0260                 0.0453                 0.0355
 IR Inten    --      4.9942                 0.0615                 1.3995
 Raman Activ --      1.4614                 0.5135                 0.7517

                      7                      8                      9
                      A                      A                      A
 Frequencies --     96.6515                98.6239               105.1536
 Red. masses --      9.5995                 8.7708                 6.0856
 Frc consts  --      0.0528                 0.0503                 0.0396
 IR Inten    --      0.2316                 0.6238                 0.1826
 Raman Activ --      6.5546                 2.3561                 3.5715

                     10                     11                     12
                      A                      A                      A
 Frequencies --    120.6681               125.3257               129.4259
 Red. masses --      8.7380                 4.6892                 7.5106
 Frc consts  --      0.0750                 0.0434                 0.0741
 IR Inten    --      2.6867                 0.1571                 1.1357
 Raman Activ --      2.0166                13.6129                 1.1047

                     13                     14                     15
                      A                      A                      A
 Frequencies --    132.3420               143.6678               154.7674
 Red. masses --      6.1839                 8.5002                16.3733
 Frc consts  --      0.0638                 0.1034                 0.2311
 IR Inten    --      0.2040                 1.0283                 2.2251
 Raman Activ --      2.7997                 0.5246                 0.4572

                     16                     17                     18
                      A                      A                      A
 Frequencies --    159.0511               159.4005               164.7443
 Red. masses --      9.1992                 8.7207                11.4806
 Frc consts  --      0.1371                 0.1306                 0.1836
 IR Inten    --      1.2833                 1.3911                 4.2995
 Raman Activ --      1.6993                 1.0504                 0.3970

                     19                     20                     21
                      A                      A                      A
 Frequencies --    182.2746               187.3385               199.1129
 Red. masses --      5.7156                 7.7674                 2.2976
 Frc consts  --      0.1119                 0.1606                 0.0537
 IR Inten    --      2.7757                46.5280                16.8699
 Raman Activ --      0.6451                 0.8856                 0.7837

                     22                     23                     24
                      A                      A                      A
 Frequencies --    211.9776               216.5781               227.9794
 Red. masses --     13.8181                 4.3578                 2.8170
 Frc consts  --      0.3658                 0.1204                 0.0863
 IR Inten    --      3.1449                 6.0433                16.0182
 Raman Activ --      0.3353                 0.0387                 2.2163

                     25                     26                     27
                      A                      A                      A
 Frequencies --    249.4253               250.1916               256.0360
 Red. masses --      2.9849                 3.1394                 7.4332
 Frc consts  --      0.1094                 0.1158                 0.2871
 IR Inten    --      0.8366                 0.4444                 4.5443
 Raman Activ --      0.7347                 0.7468                 1.3456

                     28                     29                     30
                      A                      A                      A
 Frequencies --    264.9481               282.3031               285.0719
 Red. masses --      7.5309                 9.6091                 8.3877
 Frc consts  --      0.3115                 0.4512                 0.4016
 IR Inten    --      1.9586                 1.4438                 0.0908
 Raman Activ --      2.3109                 3.2773                 0.4435

                     31                     32                     33
                      A                      A                      A
 Frequencies --    291.0874               305.0363               309.3890
 Red. masses --      5.4354                 4.0330                 3.2517
 Frc consts  --      0.2713                 0.2211                 0.1834
 IR Inten    --      0.2197                17.7138                25.9498
 Raman Activ --     13.1662                 2.5612                 4.1089

                     34                     35                     36
                      A                      A                      A
 Frequencies --    311.2084               326.1303               343.3422
 Red. masses --      3.2821                 5.3278                 8.7235
 Frc consts  --      0.1873                 0.3339                 0.6059
 IR Inten    --     18.2167                11.8417                42.1344
 Raman Activ --      1.3467                21.1642                 2.8501

                     37                     38                     39
                      A                      A                      A
 Frequencies --    349.4084               352.6454               355.2361
 Red. masses --      8.3708                11.1068                10.1594
 Frc consts  --      0.6021                 0.8138                 0.7554
 IR Inten    --     30.8731                29.7632                60.4840
 Raman Activ --      0.2551                10.2966                 5.8980

                     40                     41                     42
                      A                      A                      A
 Frequencies --    367.2339               369.6971               380.7705
 Red. masses --     15.6623                11.6636                12.8256
 Frc consts  --      1.2445                 0.9392                 1.0956
 IR Inten    --     26.8605                 0.6268                85.2011
 Raman Activ --      3.4565                 5.8161                12.1426

                     43                     44                     45
                      A                      A                      A
 Frequencies --    398.5476               401.0299               577.0738
 Red. masses --     13.7551                16.3570                12.0677
 Frc consts  --      1.2873                 1.5499                 2.3678
 IR Inten    --    264.4482               126.1836                11.0682
 Raman Activ --      1.3933                 6.9697                 4.9075

                     46                     47                     48
                      A                      A                      A
 Frequencies --    595.4232               623.8500               667.2493
 Red. masses --     16.9639                 1.1910                 1.1389
 Frc consts  --      3.5435                 0.2731                 0.2987
 IR Inten    --     16.6971               360.8560               171.2810
 Raman Activ --     14.9044                 2.9388                 1.3837

                     49                     50                     51
                      A                      A                      A
 Frequencies --    736.5236               737.9292               742.3884
 Red. masses --     11.2837                11.1989                11.2420
 Frc consts  --      3.6064                 3.5930                 3.6505
 IR Inten    --      0.2567                 3.6696                71.8106
 Raman Activ --      4.0817                 4.0228                 0.4534

                     52                     53                     54
                      A                      A                      A
 Frequencies --    748.4835               755.7158               757.1341
 Red. masses --     11.3092                10.9252                 9.9696
 Frc consts  --      3.7329                 3.6762                 3.3672
 IR Inten    --     31.8661                20.4912                28.5377
 Raman Activ --      5.4897                 4.6285                 2.8799

                     55                     56                     57
                      A                      A                      A
 Frequencies --   1044.5058              1045.1486              1047.6690
 Red. masses --      1.6851                 1.6850                 1.6951
 Frc consts  --      1.0832                 1.0844                 1.0962
 IR Inten    --      0.0029                 0.0083                 0.0202
 Raman Activ --      0.6294                 1.1652                 1.9098

                     58                     59                     60
                      A                      A                      A
 Frequencies --   1048.0065              1048.7526              1050.5206
 Red. masses --      1.6927                 1.6835                 1.6822
 Frc consts  --      1.0954                 1.0910                 1.0938
 IR Inten    --      0.0230                 0.0007                 0.0277
 Raman Activ --      2.7277                 0.4397                 4.6667

                     61                     62                     63
                      A                      A                      A
 Frequencies --   1388.5623              1389.7383              1392.6231
 Red. masses --      7.4178                 9.2135                 7.0184
 Frc consts  --      8.4266                10.4844                 8.0197
 IR Inten    --      1.6098                52.9131               232.8844
 Raman Activ --     19.8539                 4.0363                21.2932

                     64                     65                     66
                      A                      A                      A
 Frequencies --   1394.0749              1394.8548              1394.9633
 Red. masses --      6.3541                 4.8536                 1.2538
 Frc consts  --      7.2757                 5.5639                 1.4375
 IR Inten    --    287.6320               224.2981                31.3542
 Raman Activ --      5.7830                11.6932                 6.3471

                     67                     68                     69
                      A                      A                      A
 Frequencies --   1396.2720              1398.8763              1399.3774
 Red. masses --      1.1089                 1.1101                 1.1171
 Frc consts  --      1.2738                 1.2798                 1.2889
 IR Inten    --     25.6134                10.4197                10.2895
 Raman Activ --      5.3286                 5.1352                 8.9963

                     70                     71                     72
                      A                      A                      A
 Frequencies --   1400.7465              1402.1773              1403.7674
 Red. masses --      2.2088                 1.1921                 1.9855
 Frc consts  --      2.5534                 1.3809                 2.3052
 IR Inten    --     81.5485                 0.8965                 9.2549
 Raman Activ --     27.1060                 9.7434                24.6130

                     73                     74                     75
                      A                      A                      A
 Frequencies --   1580.1386              1600.9359              1602.1951
 Red. masses --     10.8027                11.0812                11.3813
 Frc consts  --     15.8918                16.7334                17.2136
 IR Inten    --      1.9357                30.4382                 3.5654
 Raman Activ --      0.8122                18.3546                14.6674

                     76                     77                     78
                      A                      A                      A
 Frequencies --   1609.0196              1623.8522              1630.7000
 Red. masses --     11.2217                10.8876                11.4593
 Frc consts  --     17.1172                16.9151                17.9537
 IR Inten    --      2.6162               447.5085               424.9118
 Raman Activ --      5.6970                 3.4868                 0.7561

                     79                     80                     81
                      A                      A                      A
 Frequencies --   1660.5893              2965.6881              2968.1941
 Red. masses --      1.0851                 1.0833                 1.0834
 Frc consts  --      1.7630                 5.6138                 5.6237
 IR Inten    --     56.0372               108.4956               131.3568
 Raman Activ --      2.3408               300.9993               332.9044

                     82                     83                     84
                      A                      A                      A
 Frequencies --   2979.9063              2981.6514              2983.5912
 Red. masses --      1.0840                 1.0837                 1.0839
 Frc consts  --      5.6716                 5.6766                 5.6850
 IR Inten    --     89.5277               111.3845               141.7116
 Raman Activ --    321.4373               303.3376               365.3504

                     85                     86                     87
                      A                      A                      A
 Frequencies --   2986.5680              3699.4617              3791.0437
 Red. masses --      1.0843                 1.0450                 1.0810
 Frc consts  --      5.6984                 8.4265                 9.1535
 IR Inten    --     86.3187                31.3918               100.2019
 Raman Activ --    530.2271               113.6575                 4.3582

 - Thermochemistry -
 -------------------
 Temperature   298.150 Kelvin.  Pressure   1.00000 Atm.
 Thermochemistry will use frequencies scaled by 0.9670.

 Molecular mass:   471.79622 amu.
 Principal axes and moments of inertia in atomic units:
                           1         2         3
     Eigenvalues --  6766.947957888.724889881.80010
           X           -0.03892   0.99557   0.08554
           Y            0.99917   0.03980  -0.00853
           Z            0.01189  -0.08514   0.99630
 This molecule is an asymmetric top.
 Rotational symmetry number  1.
 Warning -- assumption of classical behavior for rotation
           may cause significant error
 Rotational temperatures (Kelvin)      0.01280     0.01098     0.00876
 Rotational constants (GHZ):           0.26670     0.22877     0.18263
 Zero-point vibrational energy     441190.8 (Joules/Mol)
                                  105.44714 (Kcal/Mol)
 Warning -- explicit consideration of  47 degrees of freedom as
           vibrations may cause significant error
 Vibrational temperatures:     39.00    55.35    64.42   112.34   118.99
          (Kelvin)            122.97   134.47   137.22   146.30   167.89
                              174.37   180.07   184.13   199.88   215.33
                              221.29   221.77   229.21   253.60   260.64
                              277.03   294.92   301.32   317.19   347.02
                              348.09   356.22   368.62   392.77   396.62
                              404.99   424.40   430.45   432.98   453.74
                              477.69   486.13   490.63   494.24   510.93
                              514.36   529.76   554.50   557.95   802.88
                              828.41   867.96   928.34  1024.72  1026.68
                             1032.88  1041.36  1051.43  1053.40  1453.22
                             1454.11  1457.62  1458.09  1459.13  1461.59
                             1931.90  1933.54  1937.55  1939.57  1940.66
                             1940.81  1942.63  1946.25  1946.95  1948.85
                             1950.85  1953.06  2198.44  2227.38  2229.13
                             2238.62  2259.26  2268.79  2310.37  4126.15
                             4129.64  4145.94  4148.36  4151.06  4155.20
                             5147.05  5274.47

 Zero-point correction=                           0.168041 (Hartree/Particle)
 Thermal correction to Energy=                    0.197159
 Thermal correction to Enthalpy=                  0.198103
 Thermal correction to Gibbs Free Energy=         0.106265
 Sum of electronic and zero-point Energies=          -5078.375697
 Sum of electronic and thermal Energies=             -5078.346580
 Sum of electronic and thermal Enthalpies=           -5078.345635
 Sum of electronic and thermal Free Energies=        -5078.437474

                     E (Thermal)             CV                S
                      KCal/Mol        Cal/Mol-Kelvin    Cal/Mol-Kelvin
 Total                  123.719             97.883            193.290
 Electronic               0.000              0.000              5.381
 Translational            0.889              2.981             44.342
 Rotational               0.889              2.981             34.622
 Vibrational            121.941             91.921            108.944
 Vibration     1          0.593              1.984              6.031
 Vibration     2          0.594              1.982              5.336
 Vibration     3          0.595              1.979              5.036
 Vibration     4          0.599              1.964              3.939
 Vibration     5          0.600              1.961              3.826
 Vibration     6          0.601              1.959              3.761
 Vibration     7          0.602              1.954              3.586
 Vibration     8          0.603              1.952              3.547
 Vibration     9          0.604              1.948              3.422
 Vibration    10          0.608              1.936              3.155
 Vibration    11          0.609              1.932              3.081
 Vibration    12          0.610              1.928              3.019
 Vibration    13          0.611              1.925              2.976
 Vibration    14          0.615              1.914              2.819
 Vibration    15          0.618              1.903              2.677
 Vibration    16          0.619              1.898              2.625
 Vibration    17          0.620              1.898              2.620
 Vibration    18          0.621              1.892              2.558
 Vibration    19          0.628              1.872              2.368
 Vibration    20          0.630              1.865              2.316
 Vibration    21          0.635              1.850              2.203
 Vibration    22          0.640              1.833              2.088
 Vibration    23          0.642              1.826              2.049
 Vibration    24          0.647              1.810              1.955
 Vibration    25          0.658              1.777              1.794
 Vibration    26          0.658              1.776              1.789
 Vibration    27          0.661              1.767              1.748
 Vibration    28          0.666              1.752              1.687
 Vibration    29          0.676              1.723              1.577
 Vibration    30          0.677              1.718              1.560
 Vibration    31          0.681              1.708              1.525
 Vibration    32          0.689              1.683              1.445
 Vibration    33          0.692              1.675              1.421
 Vibration    34          0.693              1.672              1.412
 Vibration    35          0.703              1.644              1.334
 Vibration    36          0.714              1.612              1.250
 Vibration    37          0.718              1.600              1.222
 Vibration    38          0.721              1.594              1.207
 Vibration    39          0.722              1.588              1.196
 Vibration    40          0.731              1.565              1.143
 Vibration    41          0.733              1.560              1.133
 Vibration    42          0.741              1.538              1.087
 Vibration    43          0.754              1.501              1.018
 Vibration    44          0.756              1.496              1.009
 Vibration    45          0.914              1.122              0.528
 Vibration    46          0.932              1.084              0.493
 Vibration    47          0.962              1.025              0.444

 Normal termination of Gaussian 16 at Mon Jan 30 14:23:09 2023.
