 Gaussian 16, Revision C.02,
 Gaussian 16:  ES64L-G16RevC.02  7-Dec-2021

 ----------------------------------------------------------------------
 #p freq=raman scale=0.967 guess=read geom=allcheck gen um06l int=grid=
 ultrafine scf=(xqc,intrep,maxconventionalcycle=150) pop=(hirshfeld) no
 symm
 ----------------------------------------------------------------------

 Structure from the checkpoint file:  "/scratch1/svicchi/G09-55812.pbs02/02-freq/FeFeFe-B-0xH2O-freq.chk"
 --------
 FeFeFe-B
 --------
 Charge =  0 Multiplicity =15

                          Input orientation:
 ---------------------------------------------------------------------
 Center     Atomic      Atomic             Coordinates (Angstroms)
 Number     Number       Type             X           Y           Z
 ---------------------------------------------------------------------
      1          8           0        1.713511   -2.143781   -1.638333
      2          8           0       -0.475155   -2.509277   -1.204900
      3          6           0        0.584590   -2.706090   -1.811096
      4          1           0        0.575286   -3.466052   -2.610925
      5          8           0        1.952173    2.037445    1.157128
      6          8           0        3.122126    0.114603    1.127593
      7          6           0        2.900296    1.296706    1.494662
      8          1           0        3.631024    1.723742    2.200523
      9          8           0       -2.117666   -0.096457   -1.453853
     10          8           0        2.679655    0.512148   -1.570821
     11          8           0        1.399190    2.363167   -1.531321
     12          6           0        2.335444    1.645942   -1.967757
     13          1           0        2.916023    2.072315   -2.801826
     14          8           0       -0.540189   -2.096826    1.713949
     15          8           0        1.647319   -2.249058    1.170544
     16          6           0        0.633189   -2.472464    1.886435
     17          1           0        0.815057   -3.088765    2.783203
     18         26           0       -1.392864   -1.133895    0.137954
     19          8           0       -2.097064    0.375189    1.472187
     20         26           0        0.250665    1.813181    0.021995
     21          8           0       -0.833523    2.245843    1.593189
     22          8           0       -1.340790    2.003050   -1.154979
     23         26           0        1.955246   -0.840346   -0.199967
     24          8           0        0.281088   -0.048023   -0.013288
     25          6           0       -1.775911    1.469725    1.951195
     26          1           0       -2.371466    1.842262    2.802192
     27          6           0       -2.033784    1.115627   -1.723285
     28          1           0       -2.649568    1.465737   -2.568540
     29          7           0       -5.493931    0.051965    0.535939
     30          7           0       -4.892540    0.768023   -0.033782
     31          8           0       -2.750172   -2.003473    0.260655
 ---------------------------------------------------------------------

 SCF Done:  E(UM06L) =  -5186.81285266     A.U. after    3 cycles

 Alpha  occ. eigenvalues -- -255.66744-255.66743-255.63969 -30.11788 -30.11787
 Alpha  occ. eigenvalues --  -30.07984 -25.88908 -25.88908 -25.88838 -25.88837
 Alpha  occ. eigenvalues --  -25.88715 -25.88713 -25.85505 -25.85450 -25.85036
 Alpha  occ. eigenvalues --  -19.00664 -19.00663 -19.00474 -19.00472 -18.99986
 Alpha  occ. eigenvalues --  -18.99981 -18.99943 -18.99899 -18.99469 -18.99394
 Alpha  occ. eigenvalues --  -18.99380 -18.98721 -18.98693 -18.98175 -14.25142
 Alpha  occ. eigenvalues --  -14.24998 -10.20322 -10.20321 -10.19292 -10.19220
 Alpha  occ. eigenvalues --  -10.19046 -10.19020  -3.68573  -3.68571  -3.61835
 Alpha  occ. eigenvalues --   -2.42746  -2.42732  -2.42589  -2.42570  -2.42325
 Alpha  occ. eigenvalues --   -2.42320  -2.36990  -2.36725  -2.34468  -1.09391
 Alpha  occ. eigenvalues --   -1.08797  -1.08190  -1.08064  -1.07606  -1.07570
 Alpha  occ. eigenvalues --   -1.06071  -1.01482  -1.01037  -1.00502  -1.00306
 Alpha  occ. eigenvalues --   -0.99954  -0.99932  -0.96396  -0.90299  -0.61729
 Alpha  occ. eigenvalues --   -0.60576  -0.60035  -0.59874  -0.59451  -0.59394
 Alpha  occ. eigenvalues --   -0.51919  -0.51490  -0.50797  -0.50695  -0.50267
 Alpha  occ. eigenvalues --   -0.50107  -0.49831  -0.49814  -0.49078  -0.48981
 Alpha  occ. eigenvalues --   -0.48072  -0.47953  -0.47804  -0.46920  -0.46567
 Alpha  occ. eigenvalues --   -0.45638  -0.44994  -0.44175  -0.43971  -0.42718
 Alpha  occ. eigenvalues --   -0.42217  -0.41934  -0.41854  -0.41694  -0.41312
 Alpha  occ. eigenvalues --   -0.41176  -0.40654  -0.40242  -0.40032  -0.39998
 Alpha  occ. eigenvalues --   -0.39379  -0.39376  -0.39099  -0.38380  -0.36825
 Alpha  occ. eigenvalues --   -0.36695  -0.35596  -0.35025  -0.33871  -0.32715
 Alpha  occ. eigenvalues --   -0.31849  -0.31760  -0.31355  -0.30813  -0.30765
 Alpha  occ. eigenvalues --   -0.30724  -0.30385  -0.29969  -0.29805  -0.29568
 Alpha  occ. eigenvalues --   -0.29178  -0.28714  -0.27303  -0.27160  -0.26609
 Alpha  occ. eigenvalues --   -0.25830  -0.24910  -0.24590  -0.24162  -0.23984
 Alpha virt. eigenvalues --   -0.16081  -0.05965  -0.05036  -0.04399  -0.04160
 Alpha virt. eigenvalues --   -0.04021  -0.03892  -0.03800  -0.03491   0.01248
 Alpha virt. eigenvalues --    0.01985   0.05693   0.07161   0.07315   0.07526

  Beta  occ. eigenvalues -- -255.66559-255.66559-255.63853 -30.00225 -30.00223
  Beta  occ. eigenvalues --  -29.98840 -25.80470 -25.80470 -25.80318 -25.80317
  Beta  occ. eigenvalues --  -25.80269 -25.80267 -25.79551 -25.78360 -25.78045
  Beta  occ. eigenvalues --  -19.00345 -19.00344 -19.00168 -19.00168 -18.99578
  Beta  occ. eigenvalues --  -18.99571 -18.99538 -18.99493 -18.99270 -18.99197
  Beta  occ. eigenvalues --  -18.98485 -18.98455 -18.97797 -18.96505 -14.25141
  Beta  occ. eigenvalues --  -14.24996 -10.20322 -10.20321 -10.19294 -10.19222
  Beta  occ. eigenvalues --  -10.19046 -10.19019  -3.43873  -3.43869  -3.43318
  Beta  occ. eigenvalues --   -2.20016  -2.18670  -2.18621  -2.18108  -2.18103
  Beta  occ. eigenvalues --   -2.18089  -2.18077  -2.16800  -2.16178  -1.08740
  Beta  occ. eigenvalues --   -1.08145  -1.07546  -1.07419  -1.06926  -1.06888
  Beta  occ. eigenvalues --   -1.06067  -1.00709  -1.00263  -0.99731  -0.99552
  Beta  occ. eigenvalues --   -0.99143  -0.99117  -0.92060  -0.85778  -0.60979
  Beta  occ. eigenvalues --   -0.59737  -0.59419  -0.59242  -0.58621  -0.58531
  Beta  occ. eigenvalues --   -0.50785  -0.50599  -0.49703  -0.48929  -0.48863
  Beta  occ. eigenvalues --   -0.48820  -0.47984  -0.47904  -0.47643  -0.47582
  Beta  occ. eigenvalues --   -0.47379  -0.47021  -0.46925  -0.45009  -0.43476
  Beta  occ. eigenvalues --   -0.43335  -0.42855  -0.41998  -0.41761  -0.41740
  Beta  occ. eigenvalues --   -0.41382  -0.39222  -0.38846  -0.36735  -0.33831
  Beta  occ. eigenvalues --   -0.33760  -0.32965  -0.32849  -0.32603  -0.32534
  Beta  occ. eigenvalues --   -0.31619  -0.31133  -0.31079  -0.30919  -0.30369
  Beta  occ. eigenvalues --   -0.30102  -0.30028  -0.29618  -0.29259  -0.29215
  Beta  occ. eigenvalues --   -0.29154  -0.28790  -0.28184  -0.27396  -0.26482
  Beta  occ. eigenvalues --   -0.26253
  Beta virt. eigenvalues --   -0.19558  -0.19356  -0.19062  -0.18716  -0.17982
  Beta virt. eigenvalues --   -0.16487  -0.16392  -0.14681  -0.13844  -0.13116
  Beta virt. eigenvalues --   -0.12656  -0.11996  -0.11887  -0.11676  -0.07598

 Mulliken charges and spin densities:
               1          2
     1  O   -0.548785   0.119967
     2  O   -0.516176   0.059809
     3  C    0.689519  -0.001415
     4  H    0.057582   0.018242
     5  O   -0.545343   0.076334
     6  O   -0.533426   0.087351
     7  C    0.684603  -0.002767
     8  H    0.062795   0.017973
     9  O   -0.492607   0.052656
    10  O   -0.545020   0.076872
    11  O   -0.533692   0.087454
    12  C    0.684448  -0.002724
    13  H    0.062852   0.018054
    14  O   -0.485179   0.051269
    15  O   -0.554123   0.110489
    16  C    0.680441  -0.001488
    17  H    0.060237   0.015932
    18  Fe   1.012539   3.203779
    19  O   -0.526325   0.060003
    20  Fe   1.012582   4.265345
    21  O   -0.546502   0.119217
    22  O   -0.551608   0.111764
    23  Fe   1.015527   4.264956
    24  O   -0.703111   0.530651
    25  C    0.686313  -0.001699
    26  H    0.059345   0.018163
    27  C    0.693955  -0.004646
    28  H    0.061611   0.016091
    29  N   -0.014425  -0.001029
    30  N    0.008783   0.002509
    31  O   -0.436809   0.630887
 Sum of Mulliken charges =  -0.00000  14.00000

 Dipole moment (field-independent basis, Debye):
    X=              3.7331    Y=              2.3071    Z=             -0.3448  Tot=              4.4020
 Quadrupole moment (field-independent basis, Debye-Ang):
   XX=           -166.7216   YY=           -163.0195   ZZ=           -151.2579
   XY=             -6.2424   XZ=              2.4449   YZ=              0.0512

  Exact polarizability:     240.839      11.879     220.821      -5.052      -2.675     196.152
 Approx polarizability:     504.341      52.912     463.680     -20.586      -9.800     342.074

                      1                      2                      3
                      A                      A                      A
 Frequencies --     15.6885                29.2676                39.2004
 Red. masses --     13.4560                13.5877                10.5341
 Frc consts  --      0.0020                 0.0069                 0.0095
 IR Inten    --      0.0169                 0.0971                 0.0446
 Raman Activ --      0.6729                 0.0760                 0.2588

                      4                      5                      6
                      A                      A                      A
 Frequencies --     42.2768                51.4276                56.1899
 Red. masses --     11.4129                10.4377                13.3499
 Frc consts  --      0.0120                 0.0163                 0.0248
 IR Inten    --      0.1275                 0.0087                 0.1083
 Raman Activ --      0.3470                 0.3812                 0.4397

                      7                      8                      9
                      A                      A                      A
 Frequencies --     80.2952                88.0292                91.2521
 Red. masses --     12.0149                 8.3504                11.8527
 Frc consts  --      0.0456                 0.0381                 0.0582
 IR Inten    --      0.0427                 0.6639                 0.0938
 Raman Activ --      1.1200                 0.4449                 0.9745

                     10                     11                     12
                      A                      A                      A
 Frequencies --     97.9184               101.0469               103.7332
 Red. masses --      7.8460                 8.0502                 8.2341
 Frc consts  --      0.0443                 0.0484                 0.0522
 IR Inten    --      0.4387                 0.0933                 0.4624
 Raman Activ --      1.2308                 5.1532                 4.8277

                     13                     14                     15
                      A                      A                      A
 Frequencies --    121.5366               123.6168               141.3089
 Red. masses --     15.0460                 5.3857                10.7043
 Frc consts  --      0.1309                 0.0485                 0.1259
 IR Inten    --      2.1714                 0.0556                 0.0501
 Raman Activ --      1.6528                11.0470                 3.4877

                     16                     17                     18
                      A                      A                      A
 Frequencies --    142.8888               147.3929               148.4609
 Red. masses --     14.5143                10.9592                 7.0277
 Frc consts  --      0.1746                 0.1403                 0.0913
 IR Inten    --      3.4924                 1.9514                 2.1736
 Raman Activ --      1.4577                 0.3018                 2.4406

                     19                     20                     21
                      A                      A                      A
 Frequencies --    150.9723               161.0071               166.9721
 Red. masses --      9.0486                14.1382                10.7954
 Frc consts  --      0.1215                 0.2159                 0.1773
 IR Inten    --      0.0126                 3.1017                11.8090
 Raman Activ --      0.5212                 0.1884                 0.4578

                     22                     23                     24
                      A                      A                      A
 Frequencies --    174.5928               187.7020               190.8578
 Red. masses --     12.3786                11.6085                 4.8517
 Frc consts  --      0.2223                 0.2410                 0.1041
 IR Inten    --      2.1746                 4.5009                 5.1861
 Raman Activ --      0.0725                 1.4015                 1.9819

                     25                     26                     27
                      A                      A                      A
 Frequencies --    212.2098               214.2419               226.4303
 Red. masses --      8.2192                 9.5420                 7.6809
 Frc consts  --      0.2181                 0.2580                 0.2320
 IR Inten    --      0.0174                 2.8182                 0.4304
 Raman Activ --      0.4536                 0.4526                 3.9332

                     28                     29                     30
                      A                      A                      A
 Frequencies --    232.4478               246.1398               250.5166
 Red. masses --      6.3120                 3.6712                 3.5489
 Frc consts  --      0.2009                 0.1310                 0.1312
 IR Inten    --      0.9094                 0.2558                 2.8988
 Raman Activ --      2.0791                 0.8096                 0.8452

                     31                     32                     33
                      A                      A                      A
 Frequencies --    267.0018               269.1601               279.3113
 Red. masses --      7.4091                 6.1968                 9.0981
 Frc consts  --      0.3112                 0.2645                 0.4182
 IR Inten    --      1.8335                 5.5930                 3.5686
 Raman Activ --      4.0039                 6.8976                 1.2400

                     34                     35                     36
                      A                      A                      A
 Frequencies --    279.8166               293.0524               299.7213
 Red. masses --      8.9674                10.3765                 4.2712
 Frc consts  --      0.4137                 0.5250                 0.2261
 IR Inten    --      3.4016                 2.2182                36.0356
 Raman Activ --      0.7433                 7.1784                 2.3374

                     37                     38                     39
                      A                      A                      A
 Frequencies --    301.8824               308.3201               319.5107
 Red. masses --      5.1711                 5.6297                 5.4455
 Frc consts  --      0.2777                 0.3153                 0.3275
 IR Inten    --     33.0146                67.0452                 1.7188
 Raman Activ --      1.7640                 1.1415                18.9447

                     40                     41                     42
                      A                      A                      A
 Frequencies --    330.7379               354.4451               378.5409
 Red. masses --      5.9234                 9.5500                 9.7175
 Frc consts  --      0.3818                 0.7069                 0.8204
 IR Inten    --      3.5339                 1.1991                 2.8850
 Raman Activ --     27.0464                 1.6103                 6.4424

                     43                     44                     45
                      A                      A                      A
 Frequencies --    385.0637               391.6717               412.5144
 Red. masses --     12.1052                10.6852                15.4733
 Frc consts  --      1.0575                 0.9658                 1.5514
 IR Inten    --     76.5253                15.3284               221.6093
 Raman Activ --      6.1982                26.0975                 1.5684

                     46                     47                     48
                      A                      A                      A
 Frequencies --    457.6122               464.2990               602.6374
 Red. masses --     13.5496                13.6407                17.1975
 Frc consts  --      1.6718                 1.7325                 3.6798
 IR Inten    --    194.9794                88.4920                85.4237
 Raman Activ --      0.2590                 5.7680                21.3018

                     49                     50                     51
                      A                      A                      A
 Frequencies --    660.0351               734.3039               735.8461
 Red. masses --     15.8831                11.3835                11.3702
 Frc consts  --      4.0768                 3.6164                 3.6274
 IR Inten    --    128.7053                 0.2177                17.2424
 Raman Activ --     12.2366                 1.0079                 3.9876

                     52                     53                     54
                      A                      A                      A
 Frequencies --    742.9338               750.2362               750.5169
 Red. masses --     11.3017                11.8324                11.4027
 Frc consts  --      3.6753                 3.9239                 3.7842
 IR Inten    --     57.0490                 3.2204                11.5892
 Raman Activ --      0.0522                 1.9337                 0.3905

                     55                     56                     57
                      A                      A                      A
 Frequencies --    753.7549               907.3423              1045.1004
 Red. masses --     11.4279                19.0903                 1.6912
 Frc consts  --      3.8254                 9.2599                 1.0884
 IR Inten    --     18.6854                67.0421                 0.0447
 Raman Activ --      1.2491               125.2733                 1.1961

                     58                     59                     60
                      A                      A                      A
 Frequencies --   1047.1872              1048.9442              1050.1306
 Red. masses --      1.6883                 1.6990                 1.6934
 Frc consts  --      1.0908                 1.1014                 1.1002
 IR Inten    --      0.0075                 0.1351                 0.1280
 Raman Activ --      1.0695                 2.6226                 3.4844

                     61                     62                     63
                      A                      A                      A
 Frequencies --   1052.4765              1054.9684              1352.1959
 Red. masses --      1.6777                 1.6754                 5.8517
 Frc consts  --      1.0949                 1.0986                 6.3039
 IR Inten    --      0.0531                 0.0108               162.2629
 Raman Activ --      0.1681                 5.0449                 2.2870

                     64                     65                     66
                      A                      A                      A
 Frequencies --   1353.6947              1380.9125              1382.5094
 Red. masses --      5.5781                 3.1416                 2.5608
 Frc consts  --      6.0225                 3.5297                 2.8837
 IR Inten    --    143.5473               112.3092               232.4244
 Raman Activ --      2.3415                 1.7816                 6.2696

                     67                     68                     69
                      A                      A                      A
 Frequencies --   1387.6554              1387.7933              1393.0752
 Red. masses --      1.3950                 1.2248                 1.1979
 Frc consts  --      1.5827                 1.3898                 1.3697
 IR Inten    --     76.4092                 0.0343                 8.0414
 Raman Activ --      6.0182                 6.5895                 2.1513

                     70                     71                     72
                      A                      A                      A
 Frequencies --   1394.5978              1395.6112              1397.4923
 Red. masses --      1.2009                 1.6321                 1.6990
 Frc consts  --      1.3761                 1.8729                 1.9550
 IR Inten    --     11.3194                32.5319                89.5787
 Raman Activ --      3.1215                 0.9247                 2.6551

                     73                     74                     75
                      A                      A                      A
 Frequencies --   1397.9321              1404.2694              1572.1290
 Red. masses --      2.6603                 4.5843                11.1060
 Frc consts  --      3.0630                 5.3263                16.1728
 IR Inten    --    195.5072                50.4357                 0.0307
 Raman Activ --      3.3189                 2.5828                 4.6643

                     76                     77                     78
                      A                      A                      A
 Frequencies --   1592.1479              1593.5158              1609.7548
 Red. masses --     11.7283                11.8431                11.7335
 Frc consts  --     17.5167                17.7186                17.9142
 IR Inten    --      3.8690                 6.7417                30.2287
 Raman Activ --      3.4100                 9.3660                 9.1015

                     79                     80                     81
                      A                      A                      A
 Frequencies --   1684.3495              1691.9920              2425.7397
 Red. masses --     11.4816                11.5346                14.0030
 Frc consts  --     19.1919                19.4559                48.5468
 IR Inten    --   1184.3150              1182.9865                 0.4066
 Raman Activ --      7.8891                 5.6815                20.1630

                     82                     83                     84
                      A                      A                      A
 Frequencies --   2979.3784              2983.7530              2986.6598
 Red. masses --      1.0843                 1.0840                 1.0844
 Frc consts  --      5.6708                 5.6858                 5.6992
 IR Inten    --     74.0276                80.9607                74.2949
 Raman Activ --    344.8376               351.4067               330.8979

                     85                     86                     87
                      A                      A                      A
 Frequencies --   2988.0307              2997.8294              2999.6864
 Red. masses --      1.0844                 1.0851                 1.0856
 Frc consts  --      5.7042                 5.7456                 5.7556
 IR Inten    --     64.9796                71.0706                83.3550
 Raman Activ --    512.5946               329.3172               581.4525

 - Thermochemistry -
 -------------------
 Temperature   298.150 Kelvin.  Pressure   1.00000 Atm.
 Thermochemistry will use frequencies scaled by 0.9670.

 Molecular mass:   497.78672 amu.
 Principal axes and moments of inertia in atomic units:
                           1         2         3
     Eigenvalues --  6970.81786********************
           X            0.99682  -0.03223   0.07291
           Y            0.03236   0.99948  -0.00055
           Z           -0.07285   0.00291   0.99734
 This molecule is an asymmetric top.
 Rotational symmetry number  1.
 Warning -- assumption of classical behavior for rotation
           may cause significant error
 Rotational temperatures (Kelvin)      0.01243     0.00860     0.00704
 Rotational constants (GHZ):           0.25890     0.17927     0.14673
 Zero-point vibrational energy     401969.1 (Joules/Mol)
                                   96.07292 (Kcal/Mol)
 Warning -- explicit consideration of  48 degrees of freedom as
           vibrations may cause significant error
 Vibrational temperatures:     21.83    40.72    54.54    58.82    71.55
          (Kelvin)             78.18   111.71   122.47   126.96   136.23
                              140.59   144.32   169.09   171.99   196.60
                              198.80   205.07   206.55   210.05   224.01
                              232.31   242.91   261.15   265.54   295.25
                              298.07   315.03   323.40   342.45   348.54
                              371.48   374.48   388.61   389.31   407.72
                              417.00   420.01   428.96   444.53   460.15
                              493.14   526.66   535.74   544.93   573.93
                              636.67   645.98   838.45   918.31  1021.64
                             1023.78  1033.64  1043.80  1044.19  1048.70
                             1262.38  1454.05  1456.95  1459.39  1461.04
                             1464.31  1467.77  1881.31  1883.39  1921.26
                             1923.48  1930.64  1930.83  1938.18  1940.30
                             1941.71  1944.33  1944.94  1953.76  2187.30
                             2215.15  2217.05  2239.65  2343.43  2354.06
                             3374.93  4145.20  4151.29  4155.33  4157.24
                             4170.87  4173.46

 Zero-point correction=                           0.153102 (Hartree/Particle)
 Thermal correction to Energy=                    0.184479
 Thermal correction to Enthalpy=                  0.185423
 Thermal correction to Gibbs Free Energy=         0.085756
 Sum of electronic and zero-point Energies=          -5186.659751
 Sum of electronic and thermal Energies=             -5186.628374
 Sum of electronic and thermal Enthalpies=           -5186.627430
 Sum of electronic and thermal Free Energies=        -5186.727097

                     E (Thermal)             CV                S
                      KCal/Mol        Cal/Mol-Kelvin    Cal/Mol-Kelvin
 Total                  115.762            102.015            209.766
 Electronic               0.000              0.000              5.381
 Translational            0.889              2.981             44.502
 Rotational               0.889              2.981             35.111
 Vibrational            113.985             96.054            124.771
 Vibration     1          0.593              1.986              7.183
 Vibration     2          0.593              1.984              5.945
 Vibration     3          0.594              1.982              5.366
 Vibration     4          0.594              1.981              5.216
 Vibration     5          0.595              1.978              4.828
 Vibration     6          0.596              1.976              4.653
 Vibration     7          0.599              1.964              3.950
 Vibration     8          0.601              1.959              3.769
 Vibration     9          0.601              1.957              3.699
 Vibration    10          0.603              1.953              3.561
 Vibration    11          0.603              1.951              3.499
 Vibration    12          0.604              1.949              3.448
 Vibration    13          0.608              1.935              3.141
 Vibration    14          0.609              1.933              3.108
 Vibration    15          0.614              1.917              2.850
 Vibration    16          0.614              1.915              2.829
 Vibration    17          0.616              1.911              2.770
 Vibration    18          0.616              1.910              2.756
 Vibration    19          0.617              1.907              2.724
 Vibration    20          0.620              1.896              2.601
 Vibration    21          0.622              1.890              2.533
 Vibration    22          0.625              1.881              2.448
 Vibration    23          0.630              1.865              2.313
 Vibration    24          0.631              1.861              2.282
 Vibration    25          0.640              1.832              2.086
 Vibration    26          0.641              1.830              2.068
 Vibration    27          0.647              1.812              1.968
 Vibration    28          0.649              1.803              1.920
 Vibration    29          0.656              1.782              1.818
 Vibration    30          0.658              1.776              1.786
 Vibration    31          0.667              1.749              1.674
 Vibration    32          0.668              1.745              1.660
 Vibration    33          0.674              1.728              1.596
 Vibration    34          0.674              1.727              1.592
 Vibration    35          0.682              1.704              1.513
 Vibration    36          0.686              1.693              1.475
 Vibration    37          0.687              1.689              1.463
 Vibration    38          0.691              1.677              1.427
 Vibration    39          0.698              1.657              1.368
 Vibration    40          0.706              1.636              1.311
 Vibration    41          0.722              1.590              1.199
 Vibration    42          0.739              1.542              1.096
 Vibration    43          0.744              1.529              1.070
 Vibration    44          0.749              1.515              1.044
 Vibration    45          0.765              1.472              0.967
 Vibration    46          0.802              1.377              0.819
 Vibration    47          0.808              1.363              0.799
 Vibration    48          0.940              1.069              0.480

 Normal termination of Gaussian 16 at Sun Jan 22 23:31:58 2023.
