 Gaussian 16, Revision C.02,
 Gaussian 16:  ES64L-G16RevC.02  7-Dec-2021

 ----------------------------------------------------------------------
 #p opt=(cartesian,maxcycle=500) gen um06l int=grid=ultrafine scf=(xqc,
 intrep,maxconventionalcycle=150) pop=(hirshfeld) nosymm
 ----------------------------------------------------------------------

 --------
 FeFeFe-B
 --------
 Symbolic Z-matrix:
 Charge =  0 Multiplicity =15

 SCF Done:  E(UM06L) =  -5186.81283983     A.U. after   28 cycles
 SCF Done:  E(UM06L) =  -5186.81192269     A.U. after   17 cycles
 SCF Done:  E(UM06L) =  -5186.81282443     A.U. after   12 cycles
 SCF Done:  E(UM06L) =  -5186.81284121     A.U. after    6 cycles
 SCF Done:  E(UM06L) =  -5186.81281269     A.U. after   12 cycles
 SCF Done:  E(UM06L) =  -5186.81283853     A.U. after   12 cycles
 SCF Done:  E(UM06L) =  -5186.81284187     A.U. after    6 cycles
 SCF Done:  E(UM06L) =  -5186.81284433     A.U. after   11 cycles
 SCF Done:  E(UM06L) =  -5186.81283335     A.U. after   14 cycles
 SCF Done:  E(UM06L) =  -5186.81284612     A.U. after    9 cycles
 SCF Done:  E(UM06L) =  -5186.81285094     A.U. after   10 cycles
 SCF Done:  E(UM06L) =  -5186.81285145     A.U. after   10 cycles
 SCF Done:  E(UM06L) =  -5186.81285169     A.U. after   10 cycles
 SCF Done:  E(UM06L) =  -5186.81285198     A.U. after   10 cycles
 SCF Done:  E(UM06L) =  -5186.81285148     A.U. after   11 cycles
 SCF Done:  E(UM06L) =  -5186.81285224     A.U. after   10 cycles
 SCF Done:  E(UM06L) =  -5186.81285239     A.U. after   10 cycles
 SCF Done:  E(UM06L) =  -5186.81285247     A.U. after    9 cycles
 SCF Done:  E(UM06L) =  -5186.81285257     A.U. after   10 cycles
 SCF Done:  E(UM06L) =  -5186.81285266     A.U. after   10 cycles
 Optimization completed.
    -- Stationary point found.

                          Input orientation:
 ---------------------------------------------------------------------
 Center     Atomic      Atomic             Coordinates (Angstroms)
 Number     Number       Type             X           Y           Z
 ---------------------------------------------------------------------
      1          8           0        1.713511   -2.143781   -1.638333
      2          8           0       -0.475155   -2.509277   -1.204900
      3          6           0        0.584590   -2.706090   -1.811096
      4          1           0        0.575286   -3.466052   -2.610925
      5          8           0        1.952173    2.037445    1.157128
      6          8           0        3.122126    0.114603    1.127593
      7          6           0        2.900296    1.296706    1.494662
      8          1           0        3.631024    1.723742    2.200523
      9          8           0       -2.117666   -0.096457   -1.453853
     10          8           0        2.679655    0.512148   -1.570821
     11          8           0        1.399190    2.363167   -1.531321
     12          6           0        2.335444    1.645942   -1.967757
     13          1           0        2.916023    2.072315   -2.801826
     14          8           0       -0.540189   -2.096826    1.713949
     15          8           0        1.647319   -2.249058    1.170544
     16          6           0        0.633189   -2.472464    1.886435
     17          1           0        0.815057   -3.088765    2.783203
     18         26           0       -1.392864   -1.133895    0.137954
     19          8           0       -2.097064    0.375189    1.472187
     20         26           0        0.250665    1.813181    0.021995
     21          8           0       -0.833523    2.245843    1.593189
     22          8           0       -1.340790    2.003050   -1.154979
     23         26           0        1.955246   -0.840346   -0.199967
     24          8           0        0.281088   -0.048023   -0.013288
     25          6           0       -1.775911    1.469725    1.951195
     26          1           0       -2.371466    1.842262    2.802192
     27          6           0       -2.033784    1.115627   -1.723285
     28          1           0       -2.649568    1.465737   -2.568540
     29          7           0       -5.493931    0.051965    0.535939
     30          7           0       -4.892540    0.768023   -0.033782
     31          8           0       -2.750172   -2.003473    0.260655
 ---------------------------------------------------------------------

 Alpha  occ. eigenvalues -- -255.66744-255.66743-255.63969 -30.11788 -30.11787
 Alpha  occ. eigenvalues --  -30.07984 -25.88908 -25.88908 -25.88838 -25.88837
 Alpha  occ. eigenvalues --  -25.88715 -25.88713 -25.85505 -25.85450 -25.85036
 Alpha  occ. eigenvalues --  -19.00664 -19.00663 -19.00474 -19.00472 -18.99986
 Alpha  occ. eigenvalues --  -18.99981 -18.99943 -18.99899 -18.99469 -18.99394
 Alpha  occ. eigenvalues --  -18.99380 -18.98721 -18.98693 -18.98175 -14.25142
 Alpha  occ. eigenvalues --  -14.24998 -10.20322 -10.20321 -10.19292 -10.19220
 Alpha  occ. eigenvalues --  -10.19046 -10.19020  -3.68573  -3.68571  -3.61835
 Alpha  occ. eigenvalues --   -2.42746  -2.42732  -2.42589  -2.42570  -2.42325
 Alpha  occ. eigenvalues --   -2.42320  -2.36990  -2.36725  -2.34468  -1.09391
 Alpha  occ. eigenvalues --   -1.08797  -1.08190  -1.08064  -1.07606  -1.07570
 Alpha  occ. eigenvalues --   -1.06071  -1.01482  -1.01037  -1.00502  -1.00306
 Alpha  occ. eigenvalues --   -0.99954  -0.99932  -0.96396  -0.90299  -0.61729
 Alpha  occ. eigenvalues --   -0.60576  -0.60035  -0.59874  -0.59451  -0.59394
 Alpha  occ. eigenvalues --   -0.51919  -0.51490  -0.50797  -0.50695  -0.50267
 Alpha  occ. eigenvalues --   -0.50107  -0.49831  -0.49814  -0.49078  -0.48981
 Alpha  occ. eigenvalues --   -0.48072  -0.47953  -0.47804  -0.46920  -0.46567
 Alpha  occ. eigenvalues --   -0.45638  -0.44994  -0.44175  -0.43971  -0.42718
 Alpha  occ. eigenvalues --   -0.42217  -0.41934  -0.41854  -0.41694  -0.41312
 Alpha  occ. eigenvalues --   -0.41176  -0.40654  -0.40242  -0.40032  -0.39998
 Alpha  occ. eigenvalues --   -0.39379  -0.39376  -0.39099  -0.38380  -0.36825
 Alpha  occ. eigenvalues --   -0.36695  -0.35596  -0.35025  -0.33871  -0.32715
 Alpha  occ. eigenvalues --   -0.31849  -0.31760  -0.31355  -0.30813  -0.30765
 Alpha  occ. eigenvalues --   -0.30724  -0.30385  -0.29969  -0.29805  -0.29568
 Alpha  occ. eigenvalues --   -0.29178  -0.28714  -0.27303  -0.27160  -0.26609
 Alpha  occ. eigenvalues --   -0.25830  -0.24910  -0.24590  -0.24162  -0.23984
 Alpha virt. eigenvalues --   -0.16081  -0.05965  -0.05036  -0.04399  -0.04160
 Alpha virt. eigenvalues --   -0.04021  -0.03892  -0.03800  -0.03491   0.01248
 Alpha virt. eigenvalues --    0.01985   0.05693   0.07161   0.07315   0.07526

  Beta  occ. eigenvalues -- -255.66559-255.66559-255.63853 -30.00224 -30.00223
  Beta  occ. eigenvalues --  -29.98840 -25.80470 -25.80470 -25.80318 -25.80317
  Beta  occ. eigenvalues --  -25.80269 -25.80267 -25.79551 -25.78360 -25.78045
  Beta  occ. eigenvalues --  -19.00345 -19.00344 -19.00168 -19.00168 -18.99578
  Beta  occ. eigenvalues --  -18.99571 -18.99538 -18.99493 -18.99270 -18.99197
  Beta  occ. eigenvalues --  -18.98485 -18.98455 -18.97797 -18.96505 -14.25141
  Beta  occ. eigenvalues --  -14.24996 -10.20322 -10.20321 -10.19294 -10.19222
  Beta  occ. eigenvalues --  -10.19046 -10.19019  -3.43873  -3.43869  -3.43318
  Beta  occ. eigenvalues --   -2.20016  -2.18670  -2.18621  -2.18108  -2.18103
  Beta  occ. eigenvalues --   -2.18089  -2.18077  -2.16800  -2.16178  -1.08740
  Beta  occ. eigenvalues --   -1.08145  -1.07546  -1.07419  -1.06926  -1.06888
  Beta  occ. eigenvalues --   -1.06067  -1.00709  -1.00263  -0.99731  -0.99552
  Beta  occ. eigenvalues --   -0.99143  -0.99117  -0.92060  -0.85778  -0.60979
  Beta  occ. eigenvalues --   -0.59737  -0.59419  -0.59242  -0.58621  -0.58531
  Beta  occ. eigenvalues --   -0.50785  -0.50599  -0.49703  -0.48929  -0.48863
  Beta  occ. eigenvalues --   -0.48820  -0.47984  -0.47904  -0.47643  -0.47582
  Beta  occ. eigenvalues --   -0.47379  -0.47021  -0.46925  -0.45009  -0.43476
  Beta  occ. eigenvalues --   -0.43335  -0.42855  -0.41998  -0.41761  -0.41740
  Beta  occ. eigenvalues --   -0.41382  -0.39222  -0.38846  -0.36735  -0.33831
  Beta  occ. eigenvalues --   -0.33760  -0.32965  -0.32849  -0.32603  -0.32534
  Beta  occ. eigenvalues --   -0.31619  -0.31133  -0.31079  -0.30919  -0.30369
  Beta  occ. eigenvalues --   -0.30102  -0.30028  -0.29618  -0.29259  -0.29215
  Beta  occ. eigenvalues --   -0.29154  -0.28790  -0.28184  -0.27396  -0.26482
  Beta  occ. eigenvalues --   -0.26253
  Beta virt. eigenvalues --   -0.19558  -0.19356  -0.19062  -0.18716  -0.17982
  Beta virt. eigenvalues --   -0.16487  -0.16392  -0.14681  -0.13844  -0.13116
  Beta virt. eigenvalues --   -0.12656  -0.11996  -0.11887  -0.11676  -0.07598

 Mulliken charges and spin densities:
               1          2
     1  O   -0.548784   0.119966
     2  O   -0.516177   0.059809
     3  C    0.689519  -0.001415
     4  H    0.057582   0.018242
     5  O   -0.545343   0.076335
     6  O   -0.533426   0.087351
     7  C    0.684603  -0.002767
     8  H    0.062795   0.017973
     9  O   -0.492607   0.052656
    10  O   -0.545020   0.076872
    11  O   -0.533693   0.087454
    12  C    0.684448  -0.002724
    13  H    0.062852   0.018054
    14  O   -0.485179   0.051269
    15  O   -0.554124   0.110488
    16  C    0.680440  -0.001488
    17  H    0.060237   0.015932
    18  Fe   1.012539   3.203783
    19  O   -0.526324   0.060003
    20  Fe   1.012580   4.265343
    21  O   -0.546501   0.119217
    22  O   -0.551608   0.111764
    23  Fe   1.015530   4.264958
    24  O   -0.703111   0.530652
    25  C    0.686313  -0.001699
    26  H    0.059345   0.018163
    27  C    0.693955  -0.004646
    28  H    0.061611   0.016091
    29  N   -0.014426  -0.001029
    30  N    0.008784   0.002509
    31  O   -0.436810   0.630883
 Sum of Mulliken charges =  -0.00000  14.00000

 Dipole moment (field-independent basis, Debye):
    X=              3.7331    Y=              2.3071    Z=             -0.3448  Tot=              4.4020
 Quadrupole moment (field-independent basis, Debye-Ang):
   XX=           -166.7216   YY=           -163.0195   ZZ=           -151.2579
   XY=             -6.2425   XZ=              2.4449   YZ=              0.0512

 Normal termination of Gaussian 16 at Sun Jan 22 10:21:55 2023.
