 Gaussian 16, Revision C.02,
 Gaussian 16:  ES64L-G16RevC.02  7-Dec-2021

 ----------------------------------------------------------------------
 #p freq=raman scale=0.967 guess=read geom=allcheck gen um06l int=grid=
 ultrafine scf=(xqc,intrep,maxconventionalcycle=150) pop=(hirshfeld) no
 symm
 ----------------------------------------------------------------------

 Structure from the checkpoint file:  "/scratch1/svicchi/G09-176060.pbs02/02-freq/FeFeFe-TS1-2xH2O-QST2-H2O_relax-TS-freq.chk"
 -------------------------
 FeFeFe-TS1-2xH2O-reactant
 -------------------------
 Charge =  0 Multiplicity =15

                          Input orientation:
 ---------------------------------------------------------------------
 Center     Atomic      Atomic             Coordinates (Angstroms)
 Number     Number       Type             X           Y           Z
 ---------------------------------------------------------------------
      1          8           0       -0.015971   -0.011356   -0.008160
      2          8           0       -0.002755    0.033407    2.244547
      3          6           0        0.535489    0.003318    1.125827
      4          1           0        1.639227   -0.005300    1.109411
      5          8           0       -4.936030   -1.620160   -0.461565
      6          8           0       -3.893019    0.228798   -1.202088
      7          6           0       -4.878070   -0.530449   -1.078641
      8          1           0       -5.808546   -0.204103   -1.578320
      9          8           0       -1.369260   -2.202915    3.454614
     10          8           0       -1.747692   -1.643688   -1.603509
     11          8           0       -2.700620   -3.363439   -0.505995
     12          6           0       -2.021999   -2.854252   -1.423761
     13          1           0       -1.615595   -3.557003   -2.172076
     14          8           0       -2.489633    1.662385    2.465694
     15          8           0       -2.210245    1.902768    0.243711
     16          6           0       -2.485849    2.308307    1.406431
     17          1           0       -2.756422    3.376441    1.477499
     18         26           0       -1.866029   -0.203898    3.096539
     19          8           0       -3.813187   -0.608186    3.739529
     20         26           0       -3.663668   -2.405126    1.024432
     21          8           0       -5.103888   -1.841374    2.368726
     22          8           0       -2.806930   -3.564779    2.379048
     23         26           0       -1.978507    0.010023   -0.362796
     24          8           0       -2.543821   -0.911950    1.166884
     25          6           0       -4.880192   -1.133753    3.391904
     26          1           0       -5.753810   -0.975873    4.049575
     27          6           0       -1.855208   -3.306646    3.170634
     28          1           0       -1.415171   -4.190532    3.665041
     29          7           0       -2.048481   -0.151719    6.014099
     30          7           0       -1.858258    0.043795    7.109920
     31          8           0       -1.320180    0.388405    4.738290
     32          8           0       -1.504337    0.949053   -2.312157
     33          1           0       -1.430321    0.180934   -2.894136
     34          1           0       -2.335735    1.377613   -2.553213
     35          8           0       -5.209090   -3.990029    0.781006
     36          1           0       -5.637031   -3.695906   -0.034530
     37          1           0       -5.809486   -3.698737    1.482404
 ---------------------------------------------------------------------

 SCF Done:  E(UM06L) =  -5339.70184865     A.U. after    3 cycles

 Alpha  occ. eigenvalues -- -255.64483-255.64419-255.62408 -30.09537 -30.09474
 Alpha  occ. eigenvalues --  -30.07145 -25.86657 -25.86613 -25.86569 -25.86496
 Alpha  occ. eigenvalues --  -25.86427 -25.86354 -25.84592 -25.84260 -25.83772
 Alpha  occ. eigenvalues --  -19.02220 -19.01732 -18.98751 -18.98615 -18.98463
 Alpha  occ. eigenvalues --  -18.98452 -18.98327 -18.98239 -18.98095 -18.98084
 Alpha  occ. eigenvalues --  -18.98046 -18.97630 -18.97560 -18.97554 -18.97441
 Alpha  occ. eigenvalues --  -18.95979 -14.28091 -14.23194 -10.18597 -10.18501
 Alpha  occ. eigenvalues --  -10.17898 -10.17673 -10.17635 -10.17626  -3.66379
 Alpha  occ. eigenvalues --   -3.66328  -3.63861  -2.40546  -2.40539  -2.40361
 Alpha  occ. eigenvalues --   -2.40295  -2.40111  -2.40031  -2.38634  -2.37941
 Alpha  occ. eigenvalues --   -2.36966  -1.07417  -1.06924  -1.06613  -1.06479
 Alpha  occ. eigenvalues --   -1.06215  -1.06161  -1.04561  -1.04370  -1.03936
 Alpha  occ. eigenvalues --   -0.99533  -0.99143  -0.98874  -0.98646  -0.98532
 Alpha  occ. eigenvalues --   -0.98460  -0.92623  -0.89067  -0.59841  -0.58838
 Alpha  occ. eigenvalues --   -0.58653  -0.58341  -0.58139  -0.58030  -0.54637
 Alpha  occ. eigenvalues --   -0.54061  -0.53537  -0.49800  -0.49556  -0.49275
 Alpha  occ. eigenvalues --   -0.48457  -0.48178  -0.47957  -0.47695  -0.47484
 Alpha  occ. eigenvalues --   -0.47219  -0.46849  -0.46723  -0.46289  -0.45551
 Alpha  occ. eigenvalues --   -0.44579  -0.43857  -0.43117  -0.42988  -0.42572
 Alpha  occ. eigenvalues --   -0.42527  -0.41471  -0.41170  -0.40940  -0.40798
 Alpha  occ. eigenvalues --   -0.40321  -0.39859  -0.39539  -0.39406  -0.38738
 Alpha  occ. eigenvalues --   -0.38608  -0.38258  -0.38140  -0.37979  -0.37708
 Alpha  occ. eigenvalues --   -0.37309  -0.37122  -0.36694  -0.35875  -0.34497
 Alpha  occ. eigenvalues --   -0.33613  -0.33411  -0.32704  -0.32060  -0.30232
 Alpha  occ. eigenvalues --   -0.29877  -0.29852  -0.29336  -0.29303  -0.29020
 Alpha  occ. eigenvalues --   -0.28977  -0.28817  -0.28460  -0.28123  -0.28039
 Alpha  occ. eigenvalues --   -0.27250  -0.27132  -0.25453  -0.25436  -0.25096
 Alpha  occ. eigenvalues --   -0.25008  -0.23272  -0.23199  -0.22513  -0.21494
 Alpha virt. eigenvalues --   -0.13521  -0.04202  -0.03524  -0.03373  -0.03118
 Alpha virt. eigenvalues --   -0.02842  -0.02406  -0.02035   0.01462   0.02449
 Alpha virt. eigenvalues --    0.05500   0.06480   0.07203   0.07480   0.07863

  Beta  occ. eigenvalues -- -255.64308-255.64244-255.62237 -29.97806 -29.97741
  Beta  occ. eigenvalues --  -29.95676 -25.78020 -25.77984 -25.77970 -25.77911
  Beta  occ. eigenvalues --  -25.77900 -25.77830 -25.75951 -25.75892 -25.75610
  Beta  occ. eigenvalues --  -19.02057 -19.01570 -18.98535 -18.98465 -18.98302
  Beta  occ. eigenvalues --  -18.98192 -18.98191 -18.97911 -18.97712 -18.97696
  Beta  occ. eigenvalues --  -18.97665 -18.97354 -18.97270 -18.97259 -18.97141
  Beta  occ. eigenvalues --  -18.94186 -14.28502 -14.23696 -10.18599 -10.18505
  Beta  occ. eigenvalues --  -10.17894 -10.17669 -10.17633 -10.17621  -3.41300
  Beta  occ. eigenvalues --   -3.41248  -3.39415  -2.15741  -2.15692  -2.15682
  Beta  occ. eigenvalues --   -2.15657  -2.15646  -2.15577  -2.13935  -2.13881
  Beta  occ. eigenvalues --   -2.13572  -1.06843  -1.06363  -1.05997  -1.05804
  Beta  occ. eigenvalues --   -1.05740  -1.05522  -1.05462  -1.04036  -1.03605
  Beta  occ. eigenvalues --   -0.98831  -0.98486  -0.98091  -0.97860  -0.97701
  Beta  occ. eigenvalues --   -0.97622  -0.91898  -0.87647  -0.59134  -0.58157
  Beta  occ. eigenvalues --   -0.58038  -0.57750  -0.57254  -0.57156  -0.55349
  Beta  occ. eigenvalues --   -0.54352  -0.53759  -0.48717  -0.48321  -0.47527
  Beta  occ. eigenvalues --   -0.47189  -0.46630  -0.46603  -0.46313  -0.46197
  Beta  occ. eigenvalues --   -0.45992  -0.45935  -0.45784  -0.45496  -0.44276
  Beta  occ. eigenvalues --   -0.43091  -0.41945  -0.41805  -0.41707  -0.41636
  Beta  occ. eigenvalues --   -0.41213  -0.40838  -0.40486  -0.40112  -0.39370
  Beta  occ. eigenvalues --   -0.35947  -0.34724  -0.33779  -0.33429  -0.31765
  Beta  occ. eigenvalues --   -0.31433  -0.30972  -0.29994  -0.29886  -0.29798
  Beta  occ. eigenvalues --   -0.29646  -0.29610  -0.29357  -0.29167  -0.28895
  Beta  occ. eigenvalues --   -0.28255  -0.28131  -0.27682  -0.27564  -0.27421
  Beta  occ. eigenvalues --   -0.27284  -0.27083  -0.26801  -0.25954  -0.25219
  Beta  occ. eigenvalues --   -0.20461
  Beta virt. eigenvalues --   -0.17323  -0.17147  -0.16435  -0.15998  -0.15970
  Beta virt. eigenvalues --   -0.14716  -0.14276  -0.13991  -0.12664  -0.11462
  Beta virt. eigenvalues --   -0.10793  -0.10547  -0.10111  -0.08326  -0.07151

 Mulliken charges and spin densities:
               1          2
     1  O   -0.558945   0.102292
     2  O   -0.536711   0.076469
     3  C    0.698087   0.002242
     4  H    0.046901   0.020241
     5  O   -0.615258   0.065315
     6  O   -0.584166   0.069399
     7  C    0.710876   0.000392
     8  H    0.038876   0.018392
     9  O   -0.533659   0.074565
    10  O   -0.606267   0.073189
    11  O   -0.545692   0.080438
    12  C    0.696394   0.001508
    13  H    0.044490   0.019493
    14  O   -0.532742   0.076049
    15  O   -0.573664   0.102153
    16  C    0.697576   0.002444
    17  H    0.044763   0.020510
    18  Fe   1.008491   4.185334
    19  O   -0.551862   0.062388
    20  Fe   1.013359   4.271988
    21  O   -0.614252   0.087995
    22  O   -0.565232   0.108498
    23  Fe   1.015904   4.271967
    24  O   -0.762237   0.613344
    25  C    0.706570   0.003666
    26  H    0.041933   0.019437
    27  C    0.692188   0.002350
    28  H    0.046708   0.020821
    29  N    0.216321  -0.148615
    30  N   -0.150428  -0.239396
    31  O   -0.369212  -0.142487
    32  O   -0.545283   0.039169
    33  H    0.365208  -0.000073
    34  H    0.372942  -0.000246
    35  O   -0.544550   0.038709
    36  H    0.366715   0.000044
    37  H    0.365855   0.000016
 Sum of Mulliken charges =  -0.00000  14.00000

 Dipole moment (field-independent basis, Debye):
    X=             -3.5975    Y=             -1.2233    Z=             -6.0719  Tot=              7.1629
 Quadrupole moment (field-independent basis, Debye-Ang):
   XX=           -143.8429   YY=           -171.5399   ZZ=           -188.3392
   XY=              4.9783   XZ=              7.8944   YZ=             -3.4909

  Exact polarizability:     220.358      19.290     229.080       7.815       7.045     334.201
 Approx polarizability:     388.058      60.417     420.221       4.465       2.554     671.484

 ******    2 imaginary frequencies (negative Signs) ******

                      1                      2                      3
                      A                      A                      A
 Frequencies --   -585.7777               -66.7810                24.7254
 Red. masses --     15.0110                13.5755                 6.7772
 Frc consts  --      3.0348                 0.0357                 0.0024
 IR Inten    --     14.6940                 0.7261                 1.9011
 Raman Activ --   2282.3807                 3.7765                 1.0989

                      4                      5                      6
                      A                      A                      A
 Frequencies --     29.4684                36.6022                41.7275
 Red. masses --     10.6599                 7.5916                12.6049
 Frc consts  --      0.0055                 0.0060                 0.0129
 IR Inten    --      0.3925                 1.7448                 0.5214
 Raman Activ --      0.5868                 0.7519                 5.3014

                      7                      8                      9
                      A                      A                      A
 Frequencies --     75.7305                81.4558                85.4796
 Red. masses --      2.5971                 5.0425                 4.5405
 Frc consts  --      0.0088                 0.0197                 0.0195
 IR Inten    --     15.3819                 1.0935                 4.6419
 Raman Activ --      2.8344                 0.2854                 1.3294

                     10                     11                     12
                      A                      A                      A
 Frequencies --     87.5196                94.5130               100.4026
 Red. masses --      6.8330                 5.7829                 6.8192
 Frc consts  --      0.0308                 0.0304                 0.0405
 IR Inten    --      2.3733                 1.7290                 2.0121
 Raman Activ --      0.9980                 1.3707                 2.3055

                     13                     14                     15
                      A                      A                      A
 Frequencies --    111.5484               113.3072               119.3490
 Red. masses --      6.0370                 6.5152                 4.8241
 Frc consts  --      0.0443                 0.0493                 0.0405
 IR Inten    --      6.5493                 1.2863                 1.0127
 Raman Activ --      2.4817                 4.0421                 8.0535

                     16                     17                     18
                      A                      A                      A
 Frequencies --    124.8894               126.7885               133.1540
 Red. masses --      4.2397                 5.8109                 6.8661
 Frc consts  --      0.0390                 0.0550                 0.0717
 IR Inten    --      0.4515                 5.7010                 2.9836
 Raman Activ --      0.5622                 1.4904                 0.2673

                     19                     20                     21
                      A                      A                      A
 Frequencies --    135.2138               147.3810               150.3610
 Red. masses --      5.2568                 8.4757                 3.9270
 Frc consts  --      0.0566                 0.1085                 0.0523
 IR Inten    --     11.2981                 0.7672                 2.9873
 Raman Activ --      1.0267                 1.9483                 1.2437

                     22                     23                     24
                      A                      A                      A
 Frequencies --    162.2877               163.6002               173.9331
 Red. masses --      9.4085                 8.5543                 5.6148
 Frc consts  --      0.1460                 0.1349                 0.1001
 IR Inten    --      3.2819                 3.1124                 0.4884
 Raman Activ --      2.2444                 2.4696                 1.3713

                     25                     26                     27
                      A                      A                      A
 Frequencies --    174.9432               176.5744               181.2160
 Red. masses --      7.4942                 8.8913                15.2457
 Frc consts  --      0.1351                 0.1633                 0.2950
 IR Inten    --      1.3295                 4.2608                 0.9232
 Raman Activ --      2.0397                 1.0449                 1.6656

                     28                     29                     30
                      A                      A                      A
 Frequencies --    185.5098               187.5719               190.1799
 Red. masses --      3.4330                 2.5338                 6.2138
 Frc consts  --      0.0696                 0.0525                 0.1324
 IR Inten    --     28.2151                31.8359                11.0244
 Raman Activ --      1.6570                 1.0271                 0.6415

                     31                     32                     33
                      A                      A                      A
 Frequencies --    200.4402               204.1175               215.8181
 Red. masses --      9.0864                 4.1220                 7.0561
 Frc consts  --      0.2151                 0.1012                 0.1936
 IR Inten    --      3.3428                45.4719                 0.6055
 Raman Activ --      1.1878                 0.9308                 4.3217

                     34                     35                     36
                      A                      A                      A
 Frequencies --    216.8058               225.8609               230.7468
 Red. masses --      5.9140                 3.6709                 3.1627
 Frc consts  --      0.1638                 0.1103                 0.0992
 IR Inten    --     11.6661                 3.9304                 1.8034
 Raman Activ --      3.1693                 1.1008                 1.6270

                     37                     38                     39
                      A                      A                      A
 Frequencies --    249.3766               263.4656               268.9982
 Red. masses --      7.4091                 9.3350                 8.3363
 Frc consts  --      0.2715                 0.3818                 0.3554
 IR Inten    --      5.9810                 8.1529                 3.7024
 Raman Activ --      3.0841                 1.0976                 0.2632

                     40                     41                     42
                      A                      A                      A
 Frequencies --    270.4589               276.6441               279.8748
 Red. masses --      4.5227                 4.4395                 4.8292
 Frc consts  --      0.1949                 0.2002                 0.2229
 IR Inten    --     26.3642                19.3279                 7.7405
 Raman Activ --      2.4108                 2.9457                 5.1911

                     43                     44                     45
                      A                      A                      A
 Frequencies --    283.9193               298.8246               300.5925
 Red. masses --      6.2683                 5.7411                 5.6110
 Frc consts  --      0.2977                 0.3021                 0.2987
 IR Inten    --     15.8463                37.4329                20.7340
 Raman Activ --      4.0173                 8.9951                 8.8321

                     46                     47                     48
                      A                      A                      A
 Frequencies --    313.1778               322.2964               329.6124
 Red. masses --      6.0157                 9.6234                 9.6399
 Frc consts  --      0.3476                 0.5890                 0.6171
 IR Inten    --      1.3803                25.8373                41.5530
 Raman Activ --     50.7712                11.0042                 8.3225

                     49                     50                     51
                      A                      A                      A
 Frequencies --    350.5890               354.3724               369.4868
 Red. masses --     12.3160                 9.5554                11.5369
 Frc consts  --      0.8919                 0.7070                 0.9280
 IR Inten    --      7.6990                 3.3750                34.3833
 Raman Activ --    159.4181                63.9103                 2.6532

                     52                     53                     54
                      A                      A                      A
 Frequencies --    370.8107               394.2922               399.1415
 Red. masses --     12.5077                12.0571                11.7899
 Frc consts  --      1.0133                 1.1044                 1.1067
 IR Inten    --    128.7867               190.0880               193.2584
 Raman Activ --     77.8846                 1.4964                 1.2706

                     55                     56                     57
                      A                      A                      A
 Frequencies --    414.8227               508.8121               562.6688
 Red. masses --      9.4005                11.6594                 1.2223
 Frc consts  --      0.9531                 1.7784                 0.2280
 IR Inten    --     98.7523               222.8655               587.3685
 Raman Activ --     37.1641               111.5865                 6.0634

                     58                     59                     60
                      A                      A                      A
 Frequencies --    592.7649               602.1851               625.3111
 Red. masses --     13.4799                 1.2334                 1.1199
 Frc consts  --      2.7906                 0.2635                 0.2580
 IR Inten    --    183.6654               118.3875                15.1646
 Raman Activ --    167.2488                22.1110                 7.4268

                     61                     62                     63
                      A                      A                      A
 Frequencies --    642.8558               659.8418               741.0896
 Red. masses --      1.2937                 5.6425                11.2078
 Frc consts  --      0.3150                 1.4474                 3.6267
 IR Inten    --    310.1778                93.5296                30.0831
 Raman Activ --     11.2500                26.2272                 1.6485

                     64                     65                     66
                      A                      A                      A
 Frequencies --    742.0321               753.4375               754.4016
 Red. masses --     11.2071                11.3154                11.2235
 Frc consts  --      3.6357                 3.7845                 3.7634
 IR Inten    --      7.0511                18.3090                29.9185
 Raman Activ --      1.6237                 2.9805                 1.7754

                     67                     68                     69
                      A                      A                      A
 Frequencies --    758.9843               766.4166              1052.0599
 Red. masses --     10.6402                10.7685                 1.6937
 Frc consts  --      3.6113                 3.7268                 1.1045
 IR Inten    --     11.9208                25.2176                 0.0677
 Raman Activ --      1.1769                 1.6239                 0.6050

                     70                     71                     72
                      A                      A                      A
 Frequencies --   1052.9622              1053.1321              1054.8533
 Red. masses --      1.6974                 1.6959                 1.7009
 Frc consts  --      1.1088                 1.1082                 1.1151
 IR Inten    --      0.0437                 0.0293                 0.0434
 Raman Activ --      0.8795                 3.5494                 2.8375

                     73                     74                     75
                      A                      A                      A
 Frequencies --   1055.3042              1057.2088              1380.3122
 Red. masses --      1.7004                 1.7005                 3.1602
 Frc consts  --      1.1157                 1.1198                 3.5474
 IR Inten    --      0.0347                 0.0147                56.3316
 Raman Activ --      0.4593                 4.8139                 2.4192

                     76                     77                     78
                      A                      A                      A
 Frequencies --   1384.5577              1386.0983              1389.3103
 Red. masses --      2.3247                 2.1707                 1.6893
 Frc consts  --      2.6257                 2.4572                 1.9211
 IR Inten    --    119.8780                71.5335               183.1146
 Raman Activ --      3.1079                 1.3032                 4.5042

                     79                     80                     81
                      A                      A                      A
 Frequencies --   1395.2296              1396.3775              1401.1021
 Red. masses --      1.1492                 1.1667                 1.4977
 Frc consts  --      1.3181                 1.3403                 1.7323
 IR Inten    --     10.9697                23.5239                37.1208
 Raman Activ --      5.9095                 5.3296                 2.0485

                     82                     83                     84
                      A                      A                      A
 Frequencies --   1401.9950              1403.5010              1404.6469
 Red. masses --      2.5023                 2.7276                 3.0309
 Frc consts  --      2.8979                 3.1656                 3.5234
 IR Inten    --     13.6536               253.0821               175.8763
 Raman Activ --      4.0464                 0.0663                 0.9573

                     85                     86                     87
                      A                      A                      A
 Frequencies --   1406.2671              1411.5483              1596.4457
 Red. masses --      1.9607                 4.1277                 9.2877
 Frc consts  --      2.2845                 4.8456                13.9466
 IR Inten    --    144.6521                 3.9002                 2.0058
 Raman Activ --      4.3152                 6.1793                 1.6786

                     88                     89                     90
                      A                      A                      A
 Frequencies --   1614.6399              1617.8212              1621.5019
 Red. masses --      9.4654                10.5122                11.2461
 Frc consts  --     14.5392                16.2108                17.4216
 IR Inten    --     17.2352                14.2376                13.9931
 Raman Activ --      6.2529                45.5708                45.2691

                     91                     92                     93
                      A                      A                      A
 Frequencies --   1645.0876              1660.7098              1697.3655
 Red. masses --      1.1243                 1.0949                10.8373
 Frc consts  --      1.7927                 1.7791                18.3959
 IR Inten    --     84.2149                78.5246              1247.3126
 Raman Activ --      4.4622                 1.4801                70.7472

                     94                     95                     96
                      A                      A                      A
 Frequencies --   1706.7468              2003.0474              2955.5795
 Red. masses --     11.1447                14.0160                 1.0834
 Frc consts  --     19.1274                33.1327                 5.5760
 IR Inten    --   1688.4529               219.9716               116.2469
 Raman Activ --    257.0802               297.0932               381.5280

                     97                     98                     99
                      A                      A                      A
 Frequencies --   2963.2046              2970.0923              2971.8880
 Red. masses --      1.0835                 1.0837                 1.0835
 Frc consts  --      5.6053                 5.6322                 5.6382
 IR Inten    --    105.4880                97.0930               118.8026
 Raman Activ --    276.6416               259.4791               309.5894

                    100                    101                    102
                      A                      A                      A
 Frequencies --   2973.4257              2974.8271              3717.8761
 Red. masses --      1.0838                 1.0841                 1.0455
 Frc consts  --      5.6455                 5.6524                 8.5148
 IR Inten    --     93.7654                99.5541                26.7112
 Raman Activ --    288.7358               738.9651                93.9976

                    103                    104                    105
                      A                      A                      A
 Frequencies --   3732.7358              3814.7048              3840.5951
 Red. masses --      1.0446                 1.0803                 1.0817
 Frc consts  --      8.5751                 9.2624                 9.4004
 IR Inten    --     31.6737                90.0592                81.2302
 Raman Activ --    105.2020                10.0617                12.2317

 - Thermochemistry -
 -------------------
 Temperature   298.150 Kelvin.  Pressure   1.00000 Atm.
 Thermochemistry will use frequencies scaled by 0.9670.

 Molecular mass:   533.80785 amu.
 Principal axes and moments of inertia in atomic units:
                           1         2         3
     Eigenvalues --  8433.86759********************
           X            0.15657   0.59534   0.78807
           Y            0.13528   0.77746  -0.61421
           Z            0.97836  -0.20278  -0.04119
 This molecule is an asymmetric top.
 Rotational symmetry number  1.
 Warning -- assumption of classical behavior for rotation
           may cause significant error
 Rotational temperatures (Kelvin)      0.01027     0.00756     0.00584
 Rotational constants (GHZ):           0.21399     0.15748     0.12164
    2 imaginary frequencies ignored.
 Zero-point vibrational energy     524578.0 (Joules/Mol)
                                  125.37714 (Kcal/Mol)
 Warning -- explicit consideration of  58 degrees of freedom as
           vibrations may cause significant error
 Vibrational temperatures:     34.40    41.00    50.92    58.06   105.36
          (Kelvin)            113.33   118.93   121.77   131.50   139.69
                              155.20   157.64   166.05   173.76   176.40
                              185.26   188.12   205.05   209.20   225.79
                              227.62   241.99   243.40   245.67   252.13
                              258.10   260.97   264.60   278.87   283.99
                              300.27   301.64   314.24   321.04   346.96
                              366.56   374.26   376.29   384.89   389.39
                              395.02   415.75   418.21   435.72   448.41
                              458.59   487.77   493.04   514.07   515.91
                              548.58   555.32   577.14   707.91   782.84
                              824.71   837.82   869.99   894.40   918.04
                             1031.08  1032.39  1048.26  1049.60  1055.97
                             1066.31  1463.73  1464.98  1465.22  1467.61
                             1468.24  1470.89  1920.42  1926.33  1928.47
                             1932.94  1941.18  1942.78  1949.35  1950.59
                             1952.69  1954.28  1956.54  1963.88  2221.13
                             2246.44  2250.87  2255.99  2288.81  2310.54
                             2361.54  2374.59  2786.83  4112.09  4122.70
                             4132.28  4134.78  4136.92  4138.87  5172.67
                             5193.35  5307.39  5343.41

 Zero-point correction=                           0.199801 (Hartree/Particle)
 Thermal correction to Energy=                    0.235616
 Thermal correction to Enthalpy=                  0.236561
 Thermal correction to Gibbs Free Energy=         0.129607
 Sum of electronic and zero-point Energies=          -5339.502047
 Sum of electronic and thermal Energies=             -5339.466232
 Sum of electronic and thermal Enthalpies=           -5339.465288
 Sum of electronic and thermal Free Energies=        -5339.572242

                     E (Thermal)             CV                S
                      KCal/Mol        Cal/Mol-Kelvin    Cal/Mol-Kelvin
 Total                  147.851            118.484            225.103
 Electronic               0.000              0.000              5.381
 Translational            0.889              2.981             44.710
 Rotational               0.889              2.981             35.615
 Vibrational            146.074            112.523            139.396
 Vibration     1          0.593              1.985              6.280
 Vibration     2          0.593              1.984              5.931
 Vibration     3          0.594              1.982              5.502
 Vibration     4          0.594              1.981              5.242
 Vibration     5          0.599              1.967              4.065
 Vibration     6          0.600              1.963              3.921
 Vibration     7          0.600              1.961              3.827
 Vibration     8          0.601              1.960              3.780
 Vibration     9          0.602              1.955              3.630
 Vibration    10          0.603              1.951              3.512
 Vibration    11          0.606              1.943              3.307
 Vibration    12          0.606              1.942              3.277
 Vibration    13          0.608              1.937              3.176
 Vibration    14          0.609              1.932              3.088
 Vibration    15          0.610              1.930              3.059
 Vibration    16          0.611              1.924              2.964
 Vibration    17          0.612              1.923              2.935
 Vibration    18          0.616              1.911              2.770
 Vibration    19          0.617              1.908              2.732
 Vibration    20          0.621              1.895              2.586
 Vibration    21          0.621              1.893              2.571
 Vibration    22          0.625              1.882              2.456
 Vibration    23          0.625              1.880              2.445
 Vibration    24          0.626              1.878              2.427
 Vibration    25          0.627              1.873              2.379
 Vibration    26          0.629              1.868              2.335
 Vibration    27          0.630              1.865              2.314
 Vibration    28          0.631              1.862              2.288
 Vibration    29          0.635              1.848              2.191
 Vibration    30          0.637              1.844              2.157
 Vibration    31          0.642              1.827              2.055
 Vibration    32          0.642              1.826              2.047
 Vibration    33          0.646              1.813              1.972
 Vibration    34          0.649              1.806              1.934
 Vibration    35          0.658              1.777              1.794
 Vibration    36          0.665              1.755              1.697
 Vibration    37          0.668              1.746              1.661
 Vibration    38          0.669              1.743              1.652
 Vibration    39          0.673              1.733              1.612
 Vibration    40          0.674              1.727              1.592
 Vibration    41          0.677              1.720              1.567
 Vibration    42          0.686              1.694              1.480
 Vibration    43          0.687              1.691              1.470
 Vibration    44          0.694              1.668              1.401
 Vibration    45          0.700              1.651              1.353
 Vibration    46          0.705              1.638              1.317
 Vibration    47          0.719              1.598              1.217
 Vibration    48          0.722              1.590              1.200
 Vibration    49          0.732              1.560              1.134
 Vibration    50          0.733              1.558              1.128
 Vibration    51          0.751              1.510              1.034
 Vibration    52          0.755              1.500              1.016
 Vibration    53          0.767              1.468              0.958
 Vibration    54          0.848              1.268              0.678
 Vibration    55          0.899              1.153              0.557
 Vibration    56          0.929              1.089              0.498
 Vibration    57          0.939              1.070              0.481
 Vibration    58          0.963              1.022              0.442

 Normal termination of Gaussian 16 at Wed Feb 22 21:37:13 2023.
