 Gaussian 16, Revision C.02,
 Gaussian 16:  ES64L-G16RevC.02  7-Dec-2021

 ----------------------------------------------------------------------
 # SP Geom=AllCheckpoint um06l/Def2TZVP int=grid=ultrafine scf=(xqc,int
 rep,maxconventionalcycle=1000) pop=(CM5) nosymm guess=read
 ----------------------------------------------------------------------

 Structure from the checkpoint file:  "/scratch1/svicchi/G09-403631.pbs02/00-opt/FeFeFe-B-1xH2O-broken-V03-opt.chk"
 --------------
 FeFeFe-B-0xH2O
 --------------
 Charge =  0 Multiplicity = 5

                          Input orientation:
 ---------------------------------------------------------------------
 Center     Atomic      Atomic             Coordinates (Angstroms)
 Number     Number       Type             X           Y           Z
 ---------------------------------------------------------------------
      1          8           0        1.719299   -2.121416   -1.587160
      2          8           0       -0.476982   -2.495739   -1.214444
      3          6           0        0.603470   -2.691674   -1.787175
      4          1           0        0.618079   -3.461158   -2.578246
      5          8           0        1.890722    2.147768    1.159944
      6          8           0        3.038791    0.210968    1.172216
      7          6           0        2.821748    1.395867    1.523514
      8          1           0        3.545289    1.819699    2.240758
      9          8           0       -2.147334   -0.106827   -1.496866
     10          8           0        2.700282    0.475697   -1.566819
     11          8           0        1.361445    2.282339   -1.619333
     12          6           0        2.316544    1.573004   -2.021967
     13          1           0        2.885238    1.969427   -2.880717
     14          8           0       -0.561258   -2.092988    1.707679
     15          8           0        1.641641   -2.191137    1.219534
     16          6           0        0.614516   -2.444745    1.906501
     17          1           0        0.788877   -3.066072    2.801842
     18         26           0       -1.413309   -1.139251    0.109271
     19          8           0       -2.200113    0.271216    1.461080
     20         26           0        0.128950    1.914114    0.013878
     21          8           0       -0.904099    2.104849    1.697957
     22          8           0       -1.463991    2.017276   -1.149819
     23         26           0        1.890613   -0.775712   -0.159116
     24          8           0        0.227856    0.017067   -0.018780
     25          6           0       -1.839186    1.314437    2.023374
     26          1           0       -2.401164    1.612984    2.925989
     27          6           0       -2.107622    1.108608   -1.747308
     28          1           0       -2.717752    1.449683   -2.600897
     29          7           0       -5.545114   -0.100340    0.508588
     30          7           0       -4.982586    0.627297   -0.085807
     31          8           0       -2.746357   -2.050465    0.200371
     32          8           0        0.260095    4.095051    0.066221
     33          1           0        0.863019    4.302013   -0.660140
     34          1           0        0.748892    4.292809    0.875454
 ---------------------------------------------------------------------

 SCF Done:  E(UM06L) =  -5263.29825059     A.U. after   31 cycles

 Alpha  occ. eigenvalues -- -255.65959-255.64929-255.63340 -30.10938 -30.07357
 Alpha  occ. eigenvalues --  -29.98634 -25.88024 -25.87959 -25.87923 -25.84848
 Alpha  occ. eigenvalues --  -25.84808 -25.84445 -25.78869 -25.78686 -25.78678
 Alpha  occ. eigenvalues --  -19.03665 -18.99612 -18.99495 -18.99483 -18.99257
 Alpha  occ. eigenvalues --  -18.99171 -18.98905 -18.98670 -18.98632 -18.98605
 Alpha  occ. eigenvalues --  -18.98599 -18.98480 -18.97883 -18.97872 -18.97447
 Alpha  occ. eigenvalues --  -14.24647 -14.24504 -10.19487 -10.19442 -10.18532
 Alpha  occ. eigenvalues --  -10.18359 -10.18155 -10.18146  -3.67645  -3.61225
 Alpha  occ. eigenvalues --   -3.42424  -2.41718  -2.41571  -2.41515  -2.36274
 Alpha  occ. eigenvalues --   -2.36087  -2.33952  -2.17250  -2.16628  -2.16607
 Alpha  occ. eigenvalues --   -1.08136  -1.07588  -1.07335  -1.06824  -1.06745
 Alpha  occ. eigenvalues --   -1.06312  -1.05781  -1.05566  -1.00152  -0.99760
 Alpha  occ. eigenvalues --   -0.99639  -0.99119  -0.98932  -0.98538  -0.93353
 Alpha  occ. eigenvalues --   -0.89270  -0.60443  -0.59402  -0.59121  -0.58681
 Alpha  occ. eigenvalues --   -0.58605  -0.57963  -0.55932  -0.50446  -0.50292
 Alpha  occ. eigenvalues --   -0.49727  -0.49264  -0.48871  -0.48411  -0.48253
 Alpha  occ. eigenvalues --   -0.47994  -0.47431  -0.47326  -0.47162  -0.46821
 Alpha  occ. eigenvalues --   -0.46424  -0.46181  -0.44985  -0.43540  -0.43047
 Alpha  occ. eigenvalues --   -0.42859  -0.42232  -0.41753  -0.41459  -0.41397
 Alpha  occ. eigenvalues --   -0.41306  -0.41029  -0.40202  -0.40118  -0.39154
 Alpha  occ. eigenvalues --   -0.38765  -0.38354  -0.38185  -0.36391  -0.36333
 Alpha  occ. eigenvalues --   -0.36080  -0.34360  -0.34027  -0.33760  -0.31968
 Alpha  occ. eigenvalues --   -0.31932  -0.31676  -0.30553  -0.30285  -0.30015
 Alpha  occ. eigenvalues --   -0.29837  -0.29669  -0.29458  -0.29276  -0.28823
 Alpha  occ. eigenvalues --   -0.28609  -0.28254  -0.28114  -0.27668  -0.26724
 Alpha  occ. eigenvalues --   -0.25645  -0.25135  -0.23924  -0.23809  -0.23259
 Alpha virt. eigenvalues --   -0.17244  -0.17214  -0.16312  -0.14841  -0.12816
 Alpha virt. eigenvalues --   -0.11020  -0.04650  -0.04095  -0.03522  -0.03435
 Alpha virt. eigenvalues --   -0.03383  -0.02976  -0.02844  -0.02534   0.00504

  Beta  occ. eigenvalues -- -255.65790-255.65106-255.63229 -30.10021 -29.99325
  Beta  occ. eigenvalues --  -29.98193 -25.87115 -25.87082 -25.87045 -25.79497
  Beta  occ. eigenvalues --  -25.79481 -25.79449 -25.78932 -25.77661 -25.77439
  Beta  occ. eigenvalues --  -19.03506 -18.99753 -18.99504 -18.99376 -18.99284
  Beta  occ. eigenvalues --  -18.98981 -18.98930 -18.98782 -18.98772 -18.98519
  Beta  occ. eigenvalues --  -18.98468 -18.98353 -18.97728 -18.97652 -18.95912
  Beta  occ. eigenvalues --  -14.24646 -14.24503 -10.19485 -10.19447 -10.18532
  Beta  occ. eigenvalues --  -10.18360 -10.18148 -10.18146  -3.66686  -3.42852
  Beta  occ. eigenvalues --   -3.42640  -2.40749  -2.40665  -2.40609  -2.19368
  Beta  occ. eigenvalues --   -2.17356  -2.17206  -2.17125  -2.16010  -2.15572
  Beta  occ. eigenvalues --   -1.08182  -1.07639  -1.07047  -1.06707  -1.06541
  Beta  occ. eigenvalues --   -1.06117  -1.05563  -1.05465  -1.00187  -0.99798
  Beta  occ. eigenvalues --   -0.99260  -0.98893  -0.98778  -0.98318  -0.93766
  Beta  occ. eigenvalues --   -0.85371  -0.60438  -0.59396  -0.58846  -0.58576
  Beta  occ. eigenvalues --   -0.58278  -0.57846  -0.55740  -0.50287  -0.50263
  Beta  occ. eigenvalues --   -0.49374  -0.49019  -0.48848  -0.48570  -0.47986
  Beta  occ. eigenvalues --   -0.47536  -0.47409  -0.46980  -0.46798  -0.46375
  Beta  occ. eigenvalues --   -0.46260  -0.45021  -0.44174  -0.43225  -0.43096
  Beta  occ. eigenvalues --   -0.42720  -0.42308  -0.41504  -0.41391  -0.41238
  Beta  occ. eigenvalues --   -0.41173  -0.40815  -0.39404  -0.39322  -0.37803
  Beta  occ. eigenvalues --   -0.36671  -0.36232  -0.35537  -0.35468  -0.32627
  Beta  occ. eigenvalues --   -0.32316  -0.31949  -0.31877  -0.30909  -0.30650
  Beta  occ. eigenvalues --   -0.30504  -0.30167  -0.29922  -0.29617  -0.29320
  Beta  occ. eigenvalues --   -0.29028  -0.28834  -0.28721  -0.28453  -0.28368
  Beta  occ. eigenvalues --   -0.27675  -0.26405  -0.26208  -0.25571  -0.25325
  Beta  occ. eigenvalues --   -0.23934
  Beta virt. eigenvalues --   -0.17960  -0.17399  -0.17331  -0.15846  -0.12842
  Beta virt. eigenvalues --   -0.12315  -0.12231  -0.11279  -0.11201  -0.07229
  Beta virt. eigenvalues --   -0.04778  -0.04088  -0.03444  -0.03374  -0.03061

 Mulliken charges and spin densities:
               1          2
     1  O   -0.548424  -0.097674
     2  O   -0.515573   0.028401
     3  C    0.689853   0.008202
     4  H    0.054089  -0.002997
     5  O   -0.585539   0.046316
     6  O   -0.535982  -0.068858
     7  C    0.695929   0.003106
     8  H    0.050653  -0.001043
     9  O   -0.492566   0.055676
    10  O   -0.543763  -0.055558
    11  O   -0.594094   0.056221
    12  C    0.688929   0.001527
    13  H    0.050881   0.000506
    14  O   -0.490854   0.023325
    15  O   -0.556267  -0.086049
    16  C    0.680057   0.005511
    17  H    0.055156  -0.005543
    18  Fe   1.006828   3.214910
    19  O   -0.528101   0.057514
    20  Fe   0.994753   4.230805
    21  O   -0.561442   0.110439
    22  O   -0.563534   0.108188
    23  Fe   0.995566  -4.196419
    24  O   -0.702233  -0.079937
    25  C    0.690580   0.002955
    26  H    0.050052   0.018118
    27  C    0.697706  -0.001605
    28  H    0.056824   0.015914
    29  N   -0.014852  -0.001117
    30  N    0.008946   0.002559
    31  O   -0.436613   0.569388
    32  O   -0.545323   0.036456
    33  H    0.370692   0.000265
    34  H    0.377668   0.000500
 Sum of Mulliken charges =  -0.00000   4.00000

 Dipole moment (field-independent basis, Debye):
    X=              4.5520    Y=              5.3987    Z=             -0.1194  Tot=              7.0627
 Quadrupole moment (field-independent basis, Debye-Ang):
   XX=           -176.5390   YY=           -155.2165   ZZ=           -157.8671
   XY=              1.3659   XZ=              2.4782   YZ=              0.8694

 Normal termination of Gaussian 16 at Mon Apr  3 22:15:44 2023.
