 Gaussian 16, Revision C.02,
 Gaussian 16:  ES64L-G16RevC.02  7-Dec-2021

 ----------------------------------------------------------------------
 #p freq=raman scale=0.967 guess=read geom=allcheck gen um06l int=grid=
 ultrafine scf=(xqc,intrep,maxconventionalcycle=150) pop=(hirshfeld) no
 symm
 ----------------------------------------------------------------------

 Structure from the checkpoint file:  "/scratch1/svicchi/G09-79393.pbs02/02-freq/FeFeFe-AO-1xH2O-freq.chk"
 ---------------
 FeFeFe-AO-1xH2O
 ---------------
 Charge =  0 Multiplicity =15

                          Input orientation:
 ---------------------------------------------------------------------
 Center     Atomic      Atomic             Coordinates (Angstroms)
 Number     Number       Type             X           Y           Z
 ---------------------------------------------------------------------
      1          8           0        0.875659    2.526972    1.632000
      2          8           0       -1.294963    1.930939    1.513165
      3          6           0       -0.327966    2.580047    1.976165
      4          1           0       -0.566666    3.285400    2.790640
      5          8           0        2.356351   -1.641458   -1.406179
      6          8           0        3.026318    0.504637   -1.255951
      7          6           0        3.062159   -0.657660   -1.725187
      8          1           0        3.805383   -0.839738   -2.521546
      9          8           0       -2.002702   -0.879988    1.440234
     10          8           0        2.949864    0.440771    1.604416
     11          8           0        2.370355   -1.730278    1.424031
     12          6           0        3.025738   -0.773257    1.901582
     13          1           0        3.758321   -1.036107    2.683796
     14          8           0       -1.237791    1.972010   -1.352134
     15          8           0        0.915518    2.627786   -1.236008
     16          6           0       -0.252664    2.663872   -1.692855
     17          1           0       -0.436302    3.397370   -2.498044
     18         26           0       -1.384585    0.521770    0.062976
     19          8           0       -1.984761   -0.818458   -1.381874
     20         26           0        0.916230   -1.725918    0.019706
     21          8           0       -0.363397   -2.383322   -1.410920
     22          8           0       -0.378678   -2.443288    1.410485
     23         26           0        1.829106    1.427134    0.225398
     24          8           0        0.460668    0.083531    0.080767
     25          6           0       -1.442960   -1.872754   -1.789502
     26          1           0       -1.980901   -2.418498   -2.583824
     27          6           0       -1.462209   -1.951342    1.802989
     28          1           0       -2.005980   -2.533749    2.566792
     29          7           0       -4.448079    0.019787   -0.000661
     30          7           0       -5.135438   -0.866263   -0.040932
     31          8           0       -3.737223    0.965290    0.041880
     32          8           0        3.364725    2.925129   -0.131768
     33          1           0        3.924630    2.414444   -0.735811
     34          1           0        2.866890    3.521975   -0.709516
 ---------------------------------------------------------------------

 SCF Done:  E(UM06L) =  -5263.29069707     A.U. after    3 cycles

 Alpha  occ. eigenvalues -- -255.61751-255.61685-255.61545 -30.06311 -30.06112
 Alpha  occ. eigenvalues --  -30.06003 -25.84013 -25.83884 -25.83678 -25.83123
 Alpha  occ. eigenvalues --  -25.83094 -25.82997 -25.82909 -25.82857 -25.82611
 Alpha  occ. eigenvalues --  -19.08529 -19.02360 -18.97762 -18.97739 -18.97706
 Alpha  occ. eigenvalues --  -18.97702 -18.97667 -18.97647 -18.97627 -18.97614
 Alpha  occ. eigenvalues --  -18.97607 -18.97595 -18.97579 -18.97570 -18.95832
 Alpha  occ. eigenvalues --  -14.40312 -14.27689 -10.17528 -10.17512 -10.17475
 Alpha  occ. eigenvalues --  -10.17427 -10.17350 -10.17245  -3.63212  -3.63060
 Alpha  occ. eigenvalues --   -3.63002  -2.38511  -2.38488  -2.38256  -2.36814
 Alpha  occ. eigenvalues --   -2.36669  -2.36578  -2.36463  -2.36330  -2.36030
 Alpha  occ. eigenvalues --   -1.22716  -1.06458  -1.06214  -1.06132  -1.05900
 Alpha  occ. eigenvalues --   -1.05835  -1.05796  -1.05779  -1.04490  -0.98666
 Alpha  occ. eigenvalues --   -0.98541  -0.98286  -0.98199  -0.98139  -0.98081
 Alpha  occ. eigenvalues --   -0.93405  -0.60780  -0.59140  -0.58114  -0.58028
 Alpha  occ. eigenvalues --   -0.57748  -0.57707  -0.57558  -0.54514  -0.54374
 Alpha  occ. eigenvalues --   -0.53885  -0.49040  -0.48923  -0.48202  -0.47543
 Alpha  occ. eigenvalues --   -0.47456  -0.47215  -0.47191  -0.47041  -0.46984
 Alpha  occ. eigenvalues --   -0.46298  -0.46168  -0.46148  -0.45329  -0.44476
 Alpha  occ. eigenvalues --   -0.43495  -0.43318  -0.42332  -0.42119  -0.41528
 Alpha  occ. eigenvalues --   -0.41180  -0.40220  -0.40168  -0.38664  -0.37799
 Alpha  occ. eigenvalues --   -0.37158  -0.36961  -0.36929  -0.36716  -0.36664
 Alpha  occ. eigenvalues --   -0.36059  -0.35868  -0.35746  -0.35574  -0.34275
 Alpha  occ. eigenvalues --   -0.33621  -0.33515  -0.32901  -0.32535  -0.32286
 Alpha  occ. eigenvalues --   -0.31811  -0.29366  -0.29138  -0.28746  -0.28713
 Alpha  occ. eigenvalues --   -0.28535  -0.28494  -0.28339  -0.28193  -0.27650
 Alpha  occ. eigenvalues --   -0.27499  -0.27288  -0.27258  -0.27096  -0.25110
 Alpha  occ. eigenvalues --   -0.24040  -0.22590  -0.22151  -0.21989  -0.21610
 Alpha virt. eigenvalues --   -0.05571  -0.05068  -0.03606  -0.02960  -0.02891
 Alpha virt. eigenvalues --   -0.02601  -0.01617  -0.01572   0.01892   0.03080
 Alpha virt. eigenvalues --    0.04299   0.07326   0.07757   0.08148   0.08683

  Beta  occ. eigenvalues -- -255.61574-255.61517-255.61380 -29.95134 -29.94924
  Beta  occ. eigenvalues --  -29.94735 -25.75557 -25.75332 -25.75073 -25.75064
  Beta  occ. eigenvalues --  -25.75048 -25.74894 -25.74866 -25.74817 -25.74683
  Beta  occ. eigenvalues --  -19.08486 -19.02202 -18.97470 -18.97445 -18.97409
  Beta  occ. eigenvalues --  -18.97394 -18.97392 -18.97359 -18.97348 -18.97344
  Beta  occ. eigenvalues --  -18.97336 -18.97274 -18.97256 -18.97249 -18.94115
  Beta  occ. eigenvalues --  -14.40314 -14.27663 -10.17548 -10.17536 -10.17496
  Beta  occ. eigenvalues --  -10.17456 -10.17376 -10.17277  -3.39226  -3.38922
  Beta  occ. eigenvalues --   -3.38646  -2.14271  -2.13915  -2.13448  -2.13444
  Beta  occ. eigenvalues --   -2.13361  -2.13161  -2.13152  -2.13089  -2.12902
  Beta  occ. eigenvalues --   -1.22638  -1.05897  -1.05730  -1.05661  -1.05555
  Beta  occ. eigenvalues --   -1.05335  -1.05252  -1.05174  -1.04153  -0.97974
  Beta  occ. eigenvalues --   -0.97827  -0.97588  -0.97503  -0.97415  -0.97325
  Beta  occ. eigenvalues --   -0.88768  -0.60562  -0.58529  -0.57654  -0.57548
  Beta  occ. eigenvalues --   -0.57170  -0.56965  -0.56905  -0.54292  -0.54180
  Beta  occ. eigenvalues --   -0.53848  -0.47957  -0.47793  -0.46741  -0.46351
  Beta  occ. eigenvalues --   -0.46250  -0.46131  -0.46044  -0.45943  -0.45562
  Beta  occ. eigenvalues --   -0.45409  -0.45322  -0.45232  -0.45150  -0.42498
  Beta  occ. eigenvalues --   -0.41807  -0.41543  -0.41458  -0.40667  -0.39796
  Beta  occ. eigenvalues --   -0.39754  -0.35928  -0.35693  -0.34171  -0.33607
  Beta  occ. eigenvalues --   -0.32960  -0.31128  -0.31075  -0.30906  -0.30230
  Beta  occ. eigenvalues --   -0.29181  -0.28946  -0.28864  -0.28773  -0.28643
  Beta  occ. eigenvalues --   -0.28367  -0.28311  -0.27750  -0.27534  -0.27469
  Beta  occ. eigenvalues --   -0.27338  -0.26669  -0.26595  -0.26560  -0.25214
  Beta  occ. eigenvalues --   -0.17155
  Beta virt. eigenvalues --   -0.15605  -0.15485  -0.15257  -0.15153  -0.15024
  Beta virt. eigenvalues --   -0.14543  -0.14007  -0.11820  -0.11246  -0.08791
  Beta virt. eigenvalues --   -0.08585  -0.07867  -0.07681  -0.07562  -0.05011

 Mulliken charges and spin densities:
               1          2
     1  O   -0.564701   0.085939
     2  O   -0.560221   0.082596
     3  C    0.687298  -0.019909
     4  H    0.041647   0.018882
     5  O   -0.555216   0.076251
     6  O   -0.627321   0.063788
     7  C    0.702276  -0.015530
     8  H    0.035986   0.017084
     9  O   -0.583590   0.070767
    10  O   -0.563637   0.079721
    11  O   -0.558712   0.082634
    12  C    0.686159  -0.017940
    13  H    0.043008   0.018048
    14  O   -0.559041   0.075864
    15  O   -0.623589   0.069955
    16  C    0.702754  -0.015907
    17  H    0.035092   0.017936
    18  Fe   1.004442   4.148472
    19  O   -0.586242   0.069164
    20  Fe   1.009255   4.160008
    21  O   -0.557660   0.075298
    22  O   -0.557362   0.075926
    23  Fe   1.017170   4.161826
    24  O   -0.818981   0.567018
    25  C    0.692659  -0.013030
    26  H    0.042957   0.016798
    27  C    0.692889  -0.012989
    28  H    0.042676   0.016943
    29  N    0.614303   0.000036
    30  N   -0.071430   0.014323
    31  O   -0.444605  -0.004509
    32  O   -0.563407   0.033814
    33  H    0.372616   0.000290
    34  H    0.372530   0.000432
 Sum of Mulliken charges =  -0.00000  14.00000

 Dipole moment (field-independent basis, Debye):
    X=              0.3708    Y=              1.7817    Z=             -1.3963  Tot=              2.2938
 Quadrupole moment (field-independent basis, Debye-Ang):
   XX=           -156.2852   YY=           -164.9302   ZZ=           -163.7841
   XY=              4.1801   XZ=             -6.1936   YZ=             -5.7549

  Exact polarizability:     278.065      16.619     252.037       1.811       2.448     190.376
 Approx polarizability:    1067.302      47.965    1019.014      31.213      42.411     313.587

                      1                      2                      3
                      A                      A                      A
 Frequencies --     25.3465                34.9496                40.5082
 Red. masses --     12.6517                 9.1309                13.1871
 Frc consts  --      0.0048                 0.0066                 0.0127
 IR Inten    --      0.0853                 0.3095                 0.2971
 Raman Activ --      0.7799                 0.0368                 1.4778

                      4                      5                      6
                      A                      A                      A
 Frequencies --     43.5327                47.1105                82.4537
 Red. masses --     10.9746                10.3034                 6.4000
 Frc consts  --      0.0123                 0.0135                 0.0256
 IR Inten    --      0.1912                 0.2044                 6.7431
 Raman Activ --      1.0798                 0.4230                 1.3388

                      7                      8                      9
                      A                      A                      A
 Frequencies --     84.4519                85.8897                91.7916
 Red. masses --     10.6825                 8.7556                 7.5933
 Frc consts  --      0.0449                 0.0381                 0.0377
 IR Inten    --      0.1884                 0.1357                 2.1379
 Raman Activ --      0.3025                 0.8902                 1.1571

                     10                     11                     12
                      A                      A                      A
 Frequencies --     94.2633               100.6867               101.3634
 Red. masses --      8.4176                 7.2540                 8.7564
 Frc consts  --      0.0441                 0.0433                 0.0530
 IR Inten    --      1.5788                 1.9280                 0.1521
 Raman Activ --      0.7792                 3.6459                 1.8281

                     13                     14                     15
                      A                      A                      A
 Frequencies --    112.3554               122.6330               126.8602
 Red. masses --      6.9393                 4.8567                 8.2021
 Frc consts  --      0.0516                 0.0430                 0.0778
 IR Inten    --      2.4067                 1.2399                 2.0400
 Raman Activ --      1.5695                12.7095                 1.4825

                     16                     17                     18
                      A                      A                      A
 Frequencies --    129.4563               131.1808               144.6294
 Red. masses --      8.2999                 5.7947                 8.7795
 Frc consts  --      0.0820                 0.0588                 0.1082
 IR Inten    --      0.8708                 0.6617                 0.8951
 Raman Activ --      3.0188                 0.9497                 0.5375

                     19                     20                     21
                      A                      A                      A
 Frequencies --    150.9476               159.4139               160.7369
 Red. masses --     15.0385                 7.9536                10.0867
 Frc consts  --      0.2019                 0.1191                 0.1535
 IR Inten    --     15.9607                 1.6322                 2.7418
 Raman Activ --      6.5125                 1.5050                 1.3965

                     22                     23                     24
                      A                      A                      A
 Frequencies --    162.0662               178.2511               182.2230
 Red. masses --      8.0872                 8.5427                 2.8195
 Frc consts  --      0.1252                 0.1599                 0.0552
 IR Inten    --      0.4930                 0.2121                40.5914
 Raman Activ --      1.0167                 8.1734                 1.0943

                     25                     26                     27
                      A                      A                      A
 Frequencies --    182.5810               188.0282               211.3493
 Red. masses --      5.7775                 2.8545                13.0278
 Frc consts  --      0.1135                 0.0595                 0.3429
 IR Inten    --      4.6446                41.9268                 5.8273
 Raman Activ --      0.3679                 1.1508                 0.6682

                     28                     29                     30
                      A                      A                      A
 Frequencies --    215.6152               223.7312               249.6270
 Red. masses --      7.4800                 8.0826                 2.9175
 Frc consts  --      0.2049                 0.2384                 0.1071
 IR Inten    --      5.5414                 2.3414                 0.2915
 Raman Activ --      0.0743                 1.4410                 0.9437

                     31                     32                     33
                      A                      A                      A
 Frequencies --    252.5698               256.7303               266.8162
 Red. masses --      3.0893                 8.1709                 8.2295
 Frc consts  --      0.1161                 0.3173                 0.3452
 IR Inten    --      0.4962                 3.7852                 2.7997
 Raman Activ --      0.7277                 1.7434                 1.8856

                     34                     35                     36
                      A                      A                      A
 Frequencies --    279.6649               289.0052               292.1232
 Red. masses --      9.4761                 8.4290                 5.4215
 Frc consts  --      0.4367                 0.4148                 0.2726
 IR Inten    --      1.3121                 0.0923                 0.6617
 Raman Activ --      1.6613                 0.6557                14.0941

                     37                     38                     39
                      A                      A                      A
 Frequencies --    306.1297               310.7414               311.5652
 Red. masses --      4.1317                 3.2509                 3.2852
 Frc consts  --      0.2281                 0.1849                 0.1879
 IR Inten    --     14.9068                18.6621                19.0297
 Raman Activ --      1.1594                 1.8676                 4.7534

                     40                     41                     42
                      A                      A                      A
 Frequencies --    325.3283               338.9879               348.5731
 Red. masses --      5.2650                 8.6643                 8.7023
 Frc consts  --      0.3283                 0.5866                 0.6230
 IR Inten    --     13.6385                64.6585                28.4006
 Raman Activ --     20.9259                 1.8209                 2.0377

                     43                     44                     45
                      A                      A                      A
 Frequencies --    353.1678               357.7278               364.9272
 Red. masses --     10.6836                10.1350                11.4349
 Frc consts  --      0.7851                 0.7642                 0.8972
 IR Inten    --     22.2906                41.9618                22.8904
 Raman Activ --      7.2905                 3.0725                 5.5080

                     46                     47                     48
                      A                      A                      A
 Frequencies --    369.3515               377.4822               394.4966
 Red. masses --     15.3858                13.5045                13.3781
 Frc consts  --      1.2367                 1.1338                 1.2267
 IR Inten    --     10.5683               101.3762               224.0410
 Raman Activ --      4.4304                11.2082                 4.8357

                     49                     50                     51
                      A                      A                      A
 Frequencies --    396.3405               585.1568               606.1483
 Red. masses --     14.9563                16.7749                11.1630
 Frc consts  --      1.3842                 3.3842                 2.4165
 IR Inten    --    136.7757                41.0270                21.5652
 Raman Activ --      8.5078                16.0923                 3.2214

                     52                     53                     54
                      A                      A                      A
 Frequencies --    617.7333               618.2090               629.7607
 Red. masses --      1.3425                 6.6656                14.2463
 Frc consts  --      0.3018                 1.5009                 3.3289
 IR Inten    --    361.9369                48.2515                 8.2285
 Raman Activ --      2.9511                 0.4073                 0.3035

                     55                     56                     57
                      A                      A                      A
 Frequencies --    654.3697               738.4366               739.7864
 Red. masses --      1.1384                11.2928                11.2456
 Frc consts  --      0.2872                 3.6281                 3.6261
 IR Inten    --    129.7518                 0.5134                 3.5986
 Raman Activ --      1.4269                 3.9622                 4.7203

                     58                     59                     60
                      A                      A                      A
 Frequencies --    744.1250               750.7984               756.6690
 Red. masses --     11.2442                11.3279                10.8836
 Frc consts  --      3.6683                 3.7622                 3.6714
 IR Inten    --     70.1919                29.1216                19.0039
 Raman Activ --      0.6422                 7.4849                 6.3599

                     61                     62                     63
                      A                      A                      A
 Frequencies --    758.0709              1043.1894              1045.1187
 Red. masses --     10.4465                 1.6884                 1.6872
 Frc consts  --      3.5370                 1.0826                 1.0858
 IR Inten    --     24.4061                 0.0016                 0.0023
 Raman Activ --      2.5437                 1.0411                 1.0480

                     64                     65                     66
                      A                      A                      A
 Frequencies --   1046.5892              1047.1190              1048.4132
 Red. masses --      1.6949                 1.6899                 1.6920
 Frc consts  --      1.0938                 1.0917                 1.0958
 IR Inten    --      0.0202                 0.0046                 0.0307
 Raman Activ --      1.9891                 0.3757                 1.9485

                     67                     68                     69
                      A                      A                      A
 Frequencies --   1048.8546              1343.0388              1390.1234
 Red. masses --      1.6909                15.0656                 7.3984
 Frc consts  --      1.0960                16.0109                 8.4235
 IR Inten    --      0.0040                88.4710                 3.9675
 Raman Activ --      5.1157                45.0227                20.7028

                     70                     71                     72
                      A                      A                      A
 Frequencies --   1390.7166              1393.9424              1394.4810
 Red. masses --      9.0066                 5.6586                 5.7837
 Frc consts  --     10.2633                 6.4782                 6.6264
 IR Inten    --     20.2231               214.8527               302.5847
 Raman Activ --      7.7675                18.1533                 7.7960

                     73                     74                     75
                      A                      A                      A
 Frequencies --   1395.0697              1396.7219              1397.0654
 Red. masses --      5.8666                 1.2128                 1.1275
 Frc consts  --      6.7271                 1.3940                 1.2966
 IR Inten    --    235.0014                32.9666                 1.6590
 Raman Activ --     15.4596                 3.7774                 2.9620

                     76                     77                     78
                      A                      A                      A
 Frequencies --   1397.8471              1398.5329              1400.7099
 Red. masses --      1.1326                 1.1126                 1.4827
 Frc consts  --      1.3039                 1.2821                 1.7140
 IR Inten    --     29.8469                13.3960                51.2022
 Raman Activ --     10.3288                 8.0144                18.0168

                     79                     80                     81
                      A                      A                      A
 Frequencies --   1402.2463              1404.3856              1586.9990
 Red. masses --      1.4928                 2.3019                10.8754
 Frc consts  --      1.7294                 2.6750                16.1380
 IR Inten    --      7.2559                12.7607                 2.8699
 Raman Activ --     19.6543                34.0142                 0.2989

                     82                     83                     84
                      A                      A                      A
 Frequencies --   1604.6150              1606.9378              1613.0918
 Red. masses --     11.0649                11.4116                11.1993
 Frc consts  --     16.7857                17.3618                17.1696
 IR Inten    --     46.4025                 6.3236                 1.3323
 Raman Activ --     15.7825                14.1764                 5.3789

                     85                     86                     87
                      A                      A                      A
 Frequencies --   1625.3426              1632.3039              1661.2739
 Red. masses --     11.0758                11.3322                 1.0853
 Frc consts  --     17.2391                17.7897                 1.7647
 IR Inten    --    461.3835               427.1097                55.7964
 Raman Activ --      1.9446                 1.7593                 2.0024

                     88                     89                     90
                      A                      A                      A
 Frequencies --   2393.6319              2964.3030              2967.2100
 Red. masses --     14.0902                 1.0832                 1.0834
 Frc consts  --     47.5643                 5.6078                 5.6202
 IR Inten    --    407.3225               112.1998               134.2989
 Raman Activ --     29.2216               294.6083               326.0956

                     91                     92                     93
                      A                      A                      A
 Frequencies --   2974.0374              2975.2869              2976.0466
 Red. masses --      1.0836                 1.0837                 1.0837
 Frc consts  --      5.6468                 5.6524                 5.6550
 IR Inten    --     82.8540               180.2501                90.1464
 Raman Activ --    270.6792               137.0676               366.5393

                     94                     95                     96
                      A                      A                      A
 Frequencies --   2977.9957              3699.7754              3791.7289
 Red. masses --      1.0840                 1.0451                 1.0809
 Frc consts  --      5.6643                 8.4289                 9.1562
 IR Inten    --     76.5279                31.4778                97.1726
 Raman Activ --    676.8058               123.8465                 4.9352

 - Thermochemistry -
 -------------------
 Temperature   298.150 Kelvin.  Pressure   1.00000 Atm.
 Thermochemistry will use frequencies scaled by 0.9670.

 Molecular mass:   515.79729 amu.
 Principal axes and moments of inertia in atomic units:
                           1         2         3
     Eigenvalues --  7320.79678********************
           X            0.98461  -0.17456  -0.00885
           Y            0.17434   0.98445  -0.02171
           Z            0.01251   0.01983   0.99973
 This molecule is an asymmetric top.
 Rotational symmetry number  1.
 Warning -- assumption of classical behavior for rotation
           may cause significant error
 Rotational temperatures (Kelvin)      0.01183     0.00783     0.00637
 Rotational constants (GHZ):           0.24652     0.16308     0.13275
 Zero-point vibrational energy     472489.1 (Joules/Mol)
                                  112.92760 (Kcal/Mol)
 Warning -- explicit consideration of  54 degrees of freedom as
           vibrations may cause significant error
 Vibrational temperatures:     35.26    48.63    56.36    60.57    65.54
          (Kelvin)            114.72   117.50   119.50   127.71   131.15
                              140.09   141.03   156.32   170.62   176.50
                              180.11   182.51   201.22   210.01   221.79
                              223.63   225.48   248.00   253.53   254.02
                              261.60   294.05   299.98   311.28   347.31
                              351.40   357.19   371.22   389.10   402.09
                              406.43   425.92   432.33   433.48   452.63
                              471.63   484.97   491.36   497.71   507.72
                              513.88   525.19   548.86   551.43   814.13
                              843.33   859.45   860.11   876.18   910.42
                             1027.38  1029.26  1035.30  1044.58  1052.75
                             1054.70  1451.39  1454.07  1456.12  1456.85
                             1458.65  1459.27  1868.57  1934.08  1934.90
                             1939.39  1940.14  1940.96  1943.26  1943.73
                             1944.82  1945.78  1948.80  1950.94  1953.92
                             2207.99  2232.50  2235.73  2244.29  2261.33
                             2271.02  2311.33  3330.25  4124.23  4128.27
                             4137.77  4139.51  4140.57  4143.28  5147.49
                             5275.42

 Zero-point correction=                           0.179962 (Hartree/Particle)
 Thermal correction to Energy=                    0.213257
 Thermal correction to Enthalpy=                  0.214201
 Thermal correction to Gibbs Free Energy=         0.111669
 Sum of electronic and zero-point Energies=          -5263.110735
 Sum of electronic and thermal Energies=             -5263.077440
 Sum of electronic and thermal Enthalpies=           -5263.076496
 Sum of electronic and thermal Free Energies=        -5263.179028

                     E (Thermal)             CV                S
                      KCal/Mol        Cal/Mol-Kelvin    Cal/Mol-Kelvin
 Total                  133.821            109.856            215.796
 Electronic               0.000              0.000              5.381
 Translational            0.889              2.981             44.608
 Rotational               0.889              2.981             35.353
 Vibrational            132.043            103.894            130.454
 Vibration     1          0.593              1.985              6.230
 Vibration     2          0.594              1.983              5.593
 Vibration     3          0.594              1.981              5.301
 Vibration     4          0.595              1.980              5.158
 Vibration     5          0.595              1.979              5.002
 Vibration     6          0.600              1.963              3.897
 Vibration     7          0.600              1.962              3.850
 Vibration     8          0.600              1.961              3.817
 Vibration     9          0.602              1.957              3.687
 Vibration    10          0.602              1.955              3.635
 Vibration    11          0.603              1.951              3.506
 Vibration    12          0.603              1.951              3.493
 Vibration    13          0.606              1.942              3.293
 Vibration    14          0.609              1.934              3.123
 Vibration    15          0.610              1.930              3.058
 Vibration    16          0.610              1.928              3.019
 Vibration    17          0.611              1.926              2.993
 Vibration    18          0.615              1.913              2.806
 Vibration    19          0.617              1.907              2.724
 Vibration    20          0.620              1.898              2.620
 Vibration    21          0.620              1.897              2.605
 Vibration    22          0.620              1.895              2.589
 Vibration    23          0.626              1.876              2.409
 Vibration    24          0.628              1.872              2.368
 Vibration    25          0.628              1.871              2.365
 Vibration    26          0.630              1.864              2.310
 Vibration    27          0.640              1.834              2.093
 Vibration    28          0.642              1.828              2.057
 Vibration    29          0.645              1.816              1.989
 Vibration    30          0.658              1.777              1.793
 Vibration    31          0.660              1.772              1.772
 Vibration    32          0.662              1.766              1.743
 Vibration    33          0.667              1.749              1.675
 Vibration    34          0.674              1.728              1.593
 Vibration    35          0.680              1.712              1.537
 Vibration    36          0.682              1.706              1.519
 Vibration    37          0.690              1.681              1.439
 Vibration    38          0.693              1.673              1.414
 Vibration    39          0.693              1.671              1.410
 Vibration    40          0.702              1.646              1.338
 Vibration    41          0.711              1.620              1.271
 Vibration    42          0.718              1.601              1.226
 Vibration    43          0.721              1.593              1.205
 Vibration    44          0.724              1.584              1.185
 Vibration    45          0.729              1.569              1.153
 Vibration    46          0.732              1.561              1.134
 Vibration    47          0.738              1.544              1.101
 Vibration    48          0.751              1.510              1.033
 Vibration    49          0.752              1.506              1.026
 Vibration    50          0.922              1.105              0.512
 Vibration    51          0.943              1.061              0.474
 Vibration    52          0.955              1.037              0.454
 Vibration    53          0.956              1.036              0.453
 Vibration    54          0.968              1.013              0.434

 Normal termination of Gaussian 16 at Sun Jan 29 21:04:20 2023.
