 Gaussian 16, Revision C.02,
 Gaussian 16:  ES64L-G16RevC.02  7-Dec-2021

 ----------------------------------------------------------------------
 #p opt=(cartesian,maxcycle=500) gen um06l int=grid=ultrafine scf=(xqc,
 intrep,maxconventionalcycle=150) pop=(hirshfeld) nosymm
 ----------------------------------------------------------------------

 ---------------
 FeFeFe-AO-1xH2O
 ---------------
 Symbolic Z-matrix:
 Charge =  0 Multiplicity =15

 SCF Done:  E(UM06L) =  -5263.29069546     A.U. after   36 cycles
 SCF Done:  E(UM06L) =  -5263.29014229     A.U. after   26 cycles
 SCF Done:  E(UM06L) =  -5263.28931592     A.U. after   19 cycles
 SCF Done:  E(UM06L) =  -5263.29069546     A.U. after    8 cycles
 SCF Done:  E(UM06L) =  -5263.29052238     A.U. after   25 cycles
 SCF Done:  E(UM06L) =  -5263.29065780     A.U. after   24 cycles
 SCF Done:  E(UM06L) =  -5263.29069547     A.U. after    6 cycles
 SCF Done:  E(UM06L) =  -5263.29064919     A.U. after   23 cycles
 SCF Done:  E(UM06L) =  -5263.29068105     A.U. after   22 cycles
 SCF Done:  E(UM06L) =  -5263.28409753     A.U. after   27 cycles
 SCF Done:  E(UM06L) =  -5263.29069547     A.U. after    6 cycles
 SCF Done:  E(UM06L) =  -5263.29069592     A.U. after   16 cycles
 SCF Done:  E(UM06L) =  -5263.29069647     A.U. after   19 cycles
 SCF Done:  E(UM06L) =  -5263.29069167     A.U. after   23 cycles
 SCF Done:  E(UM06L) =  -5263.29069707     A.U. after   15 cycles
 Optimization completed.
    -- Stationary point found.

                          Input orientation:
 ---------------------------------------------------------------------
 Center     Atomic      Atomic             Coordinates (Angstroms)
 Number     Number       Type             X           Y           Z
 ---------------------------------------------------------------------
      1          8           0        0.875659    2.526972    1.632000
      2          8           0       -1.294963    1.930939    1.513165
      3          6           0       -0.327966    2.580047    1.976165
      4          1           0       -0.566666    3.285400    2.790640
      5          8           0        2.356351   -1.641458   -1.406179
      6          8           0        3.026318    0.504637   -1.255951
      7          6           0        3.062159   -0.657660   -1.725187
      8          1           0        3.805383   -0.839738   -2.521546
      9          8           0       -2.002702   -0.879988    1.440234
     10          8           0        2.949864    0.440771    1.604416
     11          8           0        2.370355   -1.730278    1.424031
     12          6           0        3.025738   -0.773257    1.901582
     13          1           0        3.758321   -1.036107    2.683796
     14          8           0       -1.237791    1.972010   -1.352134
     15          8           0        0.915518    2.627786   -1.236008
     16          6           0       -0.252664    2.663872   -1.692855
     17          1           0       -0.436302    3.397370   -2.498044
     18         26           0       -1.384585    0.521770    0.062976
     19          8           0       -1.984761   -0.818458   -1.381874
     20         26           0        0.916230   -1.725918    0.019706
     21          8           0       -0.363397   -2.383322   -1.410920
     22          8           0       -0.378678   -2.443288    1.410485
     23         26           0        1.829106    1.427134    0.225398
     24          8           0        0.460668    0.083531    0.080767
     25          6           0       -1.442960   -1.872754   -1.789502
     26          1           0       -1.980901   -2.418498   -2.583824
     27          6           0       -1.462209   -1.951342    1.802989
     28          1           0       -2.005980   -2.533749    2.566792
     29          7           0       -4.448079    0.019787   -0.000661
     30          7           0       -5.135438   -0.866263   -0.040932
     31          8           0       -3.737223    0.965290    0.041880
     32          8           0        3.364725    2.925129   -0.131768
     33          1           0        3.924630    2.414444   -0.735811
     34          1           0        2.866890    3.521975   -0.709516
 ---------------------------------------------------------------------

 Alpha  occ. eigenvalues -- -255.61751-255.61685-255.61545 -30.06311 -30.06112
 Alpha  occ. eigenvalues --  -30.06003 -25.84013 -25.83884 -25.83678 -25.83123
 Alpha  occ. eigenvalues --  -25.83094 -25.82997 -25.82909 -25.82857 -25.82611
 Alpha  occ. eigenvalues --  -19.08529 -19.02360 -18.97762 -18.97739 -18.97706
 Alpha  occ. eigenvalues --  -18.97702 -18.97667 -18.97647 -18.97627 -18.97614
 Alpha  occ. eigenvalues --  -18.97607 -18.97595 -18.97579 -18.97570 -18.95832
 Alpha  occ. eigenvalues --  -14.40312 -14.27689 -10.17528 -10.17512 -10.17475
 Alpha  occ. eigenvalues --  -10.17427 -10.17350 -10.17245  -3.63212  -3.63060
 Alpha  occ. eigenvalues --   -3.63002  -2.38511  -2.38488  -2.38256  -2.36814
 Alpha  occ. eigenvalues --   -2.36669  -2.36578  -2.36463  -2.36330  -2.36030
 Alpha  occ. eigenvalues --   -1.22716  -1.06458  -1.06214  -1.06132  -1.05900
 Alpha  occ. eigenvalues --   -1.05835  -1.05796  -1.05779  -1.04490  -0.98666
 Alpha  occ. eigenvalues --   -0.98541  -0.98286  -0.98199  -0.98139  -0.98081
 Alpha  occ. eigenvalues --   -0.93405  -0.60780  -0.59140  -0.58114  -0.58028
 Alpha  occ. eigenvalues --   -0.57748  -0.57707  -0.57558  -0.54514  -0.54374
 Alpha  occ. eigenvalues --   -0.53885  -0.49040  -0.48923  -0.48202  -0.47543
 Alpha  occ. eigenvalues --   -0.47456  -0.47215  -0.47191  -0.47041  -0.46984
 Alpha  occ. eigenvalues --   -0.46298  -0.46168  -0.46148  -0.45329  -0.44476
 Alpha  occ. eigenvalues --   -0.43495  -0.43318  -0.42332  -0.42119  -0.41528
 Alpha  occ. eigenvalues --   -0.41180  -0.40220  -0.40168  -0.38664  -0.37799
 Alpha  occ. eigenvalues --   -0.37158  -0.36961  -0.36929  -0.36716  -0.36664
 Alpha  occ. eigenvalues --   -0.36059  -0.35868  -0.35746  -0.35574  -0.34275
 Alpha  occ. eigenvalues --   -0.33621  -0.33515  -0.32901  -0.32535  -0.32286
 Alpha  occ. eigenvalues --   -0.31811  -0.29366  -0.29138  -0.28746  -0.28713
 Alpha  occ. eigenvalues --   -0.28535  -0.28494  -0.28339  -0.28193  -0.27650
 Alpha  occ. eigenvalues --   -0.27499  -0.27288  -0.27258  -0.27096  -0.25110
 Alpha  occ. eigenvalues --   -0.24040  -0.22590  -0.22151  -0.21989  -0.21610
 Alpha virt. eigenvalues --   -0.05571  -0.05068  -0.03606  -0.02960  -0.02891
 Alpha virt. eigenvalues --   -0.02601  -0.01617  -0.01572   0.01892   0.03080
 Alpha virt. eigenvalues --    0.04299   0.07326   0.07757   0.08148   0.08683

  Beta  occ. eigenvalues -- -255.61574-255.61517-255.61380 -29.95134 -29.94924
  Beta  occ. eigenvalues --  -29.94735 -25.75557 -25.75332 -25.75073 -25.75064
  Beta  occ. eigenvalues --  -25.75048 -25.74894 -25.74866 -25.74817 -25.74683
  Beta  occ. eigenvalues --  -19.08486 -19.02202 -18.97470 -18.97445 -18.97409
  Beta  occ. eigenvalues --  -18.97394 -18.97392 -18.97359 -18.97348 -18.97344
  Beta  occ. eigenvalues --  -18.97336 -18.97274 -18.97256 -18.97249 -18.94115
  Beta  occ. eigenvalues --  -14.40314 -14.27663 -10.17548 -10.17536 -10.17496
  Beta  occ. eigenvalues --  -10.17456 -10.17376 -10.17277  -3.39226  -3.38922
  Beta  occ. eigenvalues --   -3.38646  -2.14271  -2.13915  -2.13448  -2.13444
  Beta  occ. eigenvalues --   -2.13361  -2.13161  -2.13152  -2.13089  -2.12902
  Beta  occ. eigenvalues --   -1.22638  -1.05897  -1.05730  -1.05661  -1.05555
  Beta  occ. eigenvalues --   -1.05335  -1.05252  -1.05174  -1.04153  -0.97974
  Beta  occ. eigenvalues --   -0.97827  -0.97588  -0.97503  -0.97415  -0.97325
  Beta  occ. eigenvalues --   -0.88768  -0.60562  -0.58529  -0.57654  -0.57548
  Beta  occ. eigenvalues --   -0.57170  -0.56965  -0.56905  -0.54292  -0.54180
  Beta  occ. eigenvalues --   -0.53848  -0.47957  -0.47793  -0.46741  -0.46351
  Beta  occ. eigenvalues --   -0.46250  -0.46131  -0.46044  -0.45943  -0.45562
  Beta  occ. eigenvalues --   -0.45409  -0.45322  -0.45232  -0.45150  -0.42498
  Beta  occ. eigenvalues --   -0.41807  -0.41543  -0.41458  -0.40667  -0.39796
  Beta  occ. eigenvalues --   -0.39754  -0.35928  -0.35693  -0.34171  -0.33607
  Beta  occ. eigenvalues --   -0.32960  -0.31128  -0.31075  -0.30906  -0.30230
  Beta  occ. eigenvalues --   -0.29181  -0.28946  -0.28864  -0.28773  -0.28643
  Beta  occ. eigenvalues --   -0.28367  -0.28311  -0.27750  -0.27534  -0.27469
  Beta  occ. eigenvalues --   -0.27338  -0.26669  -0.26595  -0.26560  -0.25214
  Beta  occ. eigenvalues --   -0.17155
  Beta virt. eigenvalues --   -0.15605  -0.15485  -0.15257  -0.15153  -0.15024
  Beta virt. eigenvalues --   -0.14543  -0.14007  -0.11820  -0.11246  -0.08791
  Beta virt. eigenvalues --   -0.08585  -0.07867  -0.07681  -0.07562  -0.05011

 Mulliken charges and spin densities:
               1          2
     1  O   -0.564701   0.085939
     2  O   -0.560221   0.082596
     3  C    0.687298  -0.019909
     4  H    0.041647   0.018882
     5  O   -0.555216   0.076250
     6  O   -0.627321   0.063788
     7  C    0.702276  -0.015530
     8  H    0.035986   0.017084
     9  O   -0.583590   0.070767
    10  O   -0.563637   0.079721
    11  O   -0.558712   0.082634
    12  C    0.686159  -0.017940
    13  H    0.043008   0.018048
    14  O   -0.559041   0.075864
    15  O   -0.623589   0.069955
    16  C    0.702753  -0.015907
    17  H    0.035092   0.017936
    18  Fe   1.004441   4.148472
    19  O   -0.586242   0.069164
    20  Fe   1.009256   4.160009
    21  O   -0.557660   0.075298
    22  O   -0.557362   0.075926
    23  Fe   1.017170   4.161826
    24  O   -0.818981   0.567018
    25  C    0.692659  -0.013030
    26  H    0.042957   0.016798
    27  C    0.692889  -0.012989
    28  H    0.042676   0.016942
    29  N    0.614303   0.000036
    30  N   -0.071430   0.014324
    31  O   -0.444605  -0.004509
    32  O   -0.563407   0.033814
    33  H    0.372616   0.000290
    34  H    0.372530   0.000432
 Sum of Mulliken charges =  -0.00000  14.00000

 Dipole moment (field-independent basis, Debye):
    X=              0.3708    Y=              1.7817    Z=             -1.3963  Tot=              2.2938
 Quadrupole moment (field-independent basis, Debye-Ang):
   XX=           -156.2852   YY=           -164.9302   ZZ=           -163.7841
   XY=              4.1801   XZ=             -6.1935   YZ=             -5.7549

 Normal termination of Gaussian 16 at Sun Jan 29 06:14:57 2023.
