 Gaussian 16, Revision C.02,
 Gaussian 16:  ES64L-G16RevC.02  7-Dec-2021

 ----------------------------------------------------------------------
 # SP Geom=AllCheckpoint um06l/Def2TZVP int=grid=ultrafine scf=(xqc,int
 rep,maxconventionalcycle=1000) pop=(CM5) nosymm guess=read
 ----------------------------------------------------------------------

 Structure from the checkpoint file:  "/scratch1/svicchi/G09-345653.pbs02/00-opt/FeFeFe-A-0xH2O-broken-V03-opt.chk"
 --------------
 FeFeFe-B-0xH2O
 --------------
 Charge =  0 Multiplicity = 5

                          Input orientation:
 ---------------------------------------------------------------------
 Center     Atomic      Atomic             Coordinates (Angstroms)
 Number     Number       Type             X           Y           Z
 ---------------------------------------------------------------------
      1          8           0        1.713511   -2.143781   -1.638333
      2          8           0       -0.475155   -2.509277   -1.204900
      3          6           0        0.584590   -2.706090   -1.811096
      4          1           0        0.575286   -3.466052   -2.610925
      5          8           0        1.952173    2.037445    1.157128
      6          8           0        3.122126    0.114603    1.127593
      7          6           0        2.900296    1.296706    1.494662
      8          1           0        3.631024    1.723742    2.200523
      9          8           0       -2.117666   -0.096457   -1.453853
     10          8           0        2.679655    0.512148   -1.570821
     11          8           0        1.399190    2.363167   -1.531321
     12          6           0        2.335444    1.645942   -1.967757
     13          1           0        2.916023    2.072315   -2.801826
     14          8           0       -0.540189   -2.096826    1.713949
     15          8           0        1.647319   -2.249058    1.170544
     16          6           0        0.633189   -2.472464    1.886435
     17          1           0        0.815057   -3.088765    2.783203
     18         26           0       -1.392864   -1.133895    0.137954
     19          8           0       -2.097064    0.375189    1.472187
     20         26           0        0.250665    1.813181    0.021995
     21          8           0       -0.833523    2.245843    1.593189
     22          8           0       -1.340790    2.003050   -1.154979
     23         26           0        1.955246   -0.840346   -0.199967
     24          8           0        0.281088   -0.048023   -0.013288
     25          6           0       -1.775911    1.469725    1.951195
     26          1           0       -2.371466    1.842262    2.802192
     27          6           0       -2.033784    1.115627   -1.723285
     28          1           0       -2.649568    1.465737   -2.568540
     29          7           0       -5.493931    0.051965    0.535939
     30          7           0       -4.892540    0.768023   -0.033782
     31          8           0       -2.750172   -2.003473    0.260655
 ---------------------------------------------------------------------

 SCF Done:  E(UM06L) =  -5186.82469566     A.U. after   31 cycles

 Alpha  occ. eigenvalues -- -255.66478-255.66243-255.64271 -30.11403 -30.08286
 Alpha  occ. eigenvalues --  -29.99943 -25.88502 -25.88483 -25.88394 -25.85790
 Alpha  occ. eigenvalues --  -25.85744 -25.85359 -25.80208 -25.79983 -25.79970
 Alpha  occ. eigenvalues --  -19.00602 -19.00340 -19.00316 -19.00131 -19.00097
 Alpha  occ. eigenvalues --  -18.99957 -18.99819 -18.99639 -18.99573 -18.99537
 Alpha  occ. eigenvalues --  -18.99422 -18.98762 -18.98713 -18.98414 -14.25171
 Alpha  occ. eigenvalues --  -14.25026 -10.20211 -10.20207 -10.19330 -10.19213
 Alpha  occ. eigenvalues --  -10.19071 -10.19037  -3.68050  -3.62151  -3.43701
 Alpha  occ. eigenvalues --   -2.42124  -2.42068  -2.41903  -2.37238  -2.36993
 Alpha  occ. eigenvalues --   -2.34868  -2.18567  -2.17880  -2.17851  -1.08991
 Alpha  occ. eigenvalues --   -1.08392  -1.08081  -1.07749  -1.07562  -1.07180
 Alpha  occ. eigenvalues --   -1.06100  -1.01002  -1.00547  -1.00347  -0.99970
 Alpha  occ. eigenvalues --   -0.99873  -0.99429  -0.95133  -0.90266  -0.61314
 Alpha  occ. eigenvalues --   -0.60082  -0.59852  -0.59582  -0.59387  -0.58888
 Alpha  occ. eigenvalues --   -0.51269  -0.50821  -0.50608  -0.50051  -0.49883
 Alpha  occ. eigenvalues --   -0.49565  -0.49115  -0.48754  -0.48399  -0.48141
 Alpha  occ. eigenvalues --   -0.47951  -0.47657  -0.47438  -0.45979  -0.45420
 Alpha  occ. eigenvalues --   -0.44330  -0.43788  -0.43481  -0.43199  -0.42359
 Alpha  occ. eigenvalues --   -0.41957  -0.41849  -0.41805  -0.40799  -0.40660
 Alpha  occ. eigenvalues --   -0.39688  -0.39473  -0.39382  -0.38897  -0.37301
 Alpha  occ. eigenvalues --   -0.36806  -0.36331  -0.35063  -0.34659  -0.33224
 Alpha  occ. eigenvalues --   -0.32912  -0.32633  -0.31215  -0.31176  -0.30883
 Alpha  occ. eigenvalues --   -0.30599  -0.30460  -0.30249  -0.30198  -0.29621
 Alpha  occ. eigenvalues --   -0.29556  -0.29199  -0.29053  -0.28540  -0.27439
 Alpha  occ. eigenvalues --   -0.27058  -0.25763  -0.24828  -0.24721  -0.23999
 Alpha virt. eigenvalues --   -0.18457  -0.18358  -0.17684  -0.15945  -0.14092
 Alpha virt. eigenvalues --   -0.12097  -0.05430  -0.04837  -0.04297  -0.04034
 Alpha virt. eigenvalues --   -0.03936  -0.03731  -0.03644  -0.03429   0.01634

  Beta  occ. eigenvalues -- -255.66420-255.66300-255.64159 -30.11331 -29.99997
  Beta  occ. eigenvalues --  -29.99135 -25.88436 -25.88411 -25.88324 -25.80265
  Beta  occ. eigenvalues --  -25.80040 -25.80026 -25.79850 -25.78659 -25.78343
  Beta  occ. eigenvalues --  -19.00584 -19.00345 -19.00333 -19.00125 -19.00094
  Beta  occ. eigenvalues --  -19.00004 -18.99914 -18.99568 -18.99450 -18.99426
  Beta  occ. eigenvalues --  -18.99232 -18.98606 -18.98496 -18.96852 -14.25170
  Beta  occ. eigenvalues --  -14.25025 -10.20215 -10.20203 -10.19331 -10.19214
  Beta  occ. eigenvalues --  -10.19063 -10.19036  -3.67970  -3.43741  -3.43592
  Beta  occ. eigenvalues --   -2.42053  -2.41985  -2.41822  -2.20292  -2.18608
  Beta  occ. eigenvalues --   -2.17914  -2.17894  -2.17070  -2.16448  -1.08988
  Beta  occ. eigenvalues --   -1.08392  -1.08003  -1.07478  -1.07425  -1.06921
  Beta  occ. eigenvalues --   -1.06096  -1.00994  -1.00547  -1.00242  -0.99753
  Beta  occ. eigenvalues --   -0.99587  -0.99155  -0.95062  -0.86227  -0.61281
  Beta  occ. eigenvalues --   -0.60071  -0.59775  -0.59336  -0.59233  -0.58576
  Beta  occ. eigenvalues --   -0.51210  -0.50813  -0.50319  -0.49934  -0.49599
  Beta  occ. eigenvalues --   -0.49496  -0.48836  -0.48442  -0.48097  -0.47747
  Beta  occ. eigenvalues --   -0.47621  -0.47173  -0.47129  -0.45916  -0.45098
  Beta  occ. eigenvalues --   -0.44136  -0.43503  -0.43338  -0.42596  -0.42195
  Beta  occ. eigenvalues --   -0.41997  -0.41773  -0.41512  -0.40520  -0.40415
  Beta  occ. eigenvalues --   -0.38747  -0.37865  -0.36760  -0.36482  -0.33671
  Beta  occ. eigenvalues --   -0.33337  -0.32978  -0.32966  -0.31829  -0.31543
  Beta  occ. eigenvalues --   -0.31241  -0.31018  -0.30820  -0.30408  -0.30187
  Beta  occ. eigenvalues --   -0.29996  -0.29683  -0.29595  -0.29436  -0.29074
  Beta  occ. eigenvalues --   -0.28521  -0.27442  -0.27262  -0.26489  -0.26404
  Beta  occ. eigenvalues --   -0.24941
  Beta virt. eigenvalues --   -0.18602  -0.18228  -0.17732  -0.16767  -0.14724
  Beta virt. eigenvalues --   -0.13177  -0.12851  -0.12792  -0.11881  -0.08091
  Beta virt. eigenvalues --   -0.05420  -0.04797  -0.03998  -0.03974  -0.03899

 Mulliken charges and spin densities:
               1          2
     1  O   -0.548519  -0.103214
     2  O   -0.515913   0.027341
     3  C    0.689488   0.008329
     4  H    0.059116  -0.002543
     5  O   -0.545418   0.053633
     6  O   -0.531626  -0.069586
     7  C    0.683616   0.001608
     8  H    0.062741  -0.000462
     9  O   -0.492982   0.051545
    10  O   -0.545340  -0.054532
    11  O   -0.531622   0.069343
    12  C    0.683527  -0.001499
    13  H    0.062892   0.000400
    14  O   -0.484688   0.018715
    15  O   -0.554227  -0.088803
    16  C    0.679803   0.004924
    17  H    0.061600  -0.006411
    18  Fe   1.010060   3.212421
    19  O   -0.527199   0.055829
    20  Fe   0.998914   4.209041
    21  O   -0.547007   0.113779
    22  O   -0.552697   0.100562
    23  Fe   0.999664  -4.200565
    24  O   -0.676678  -0.011350
    25  C    0.686552  -0.000755
    26  H    0.059758   0.017809
    27  C    0.693956  -0.003997
    28  H    0.061691   0.014866
    29  N   -0.014546  -0.000937
    30  N    0.008931   0.002366
    31  O   -0.433845   0.582143
 Sum of Mulliken charges =  -0.00000   4.00000

 Dipole moment (field-independent basis, Debye):
    X=              3.5998    Y=              2.1702    Z=             -0.3359  Tot=              4.2167
 Quadrupole moment (field-independent basis, Debye-Ang):
   XX=           -166.7931   YY=           -162.9649   ZZ=           -151.1928
   XY=             -6.1003   XZ=              2.4287   YZ=              0.0623

 Normal termination of Gaussian 16 at Thu Mar 30 21:47:53 2023.
