 Gaussian 16, Revision C.02,
 Gaussian 16:  ES64L-G16RevC.02  7-Dec-2021

 ----------------------------------------------------------------------
 #p opt=(TS,CalcAll,cartesian,maxcycle=500) gen um06l int=grid=ultrafin
 e scf=(xqc,intrep,maxconventionalcycle=150) pop=(hirshfeld) nosymm
 ----------------------------------------------------------------------

 ----------------
 FeFeFe-TS1-0xH2O
 ----------------
 Symbolic Z-matrix:
 Charge =  0 Multiplicity =15

 SCF Done:  E(UM06L) =  -5186.75603677     A.U. after   27 cycles

 Alpha  occ. eigenvalues -- -255.66083-255.65994-255.63211 -30.11127 -30.11001
 Alpha  occ. eigenvalues --  -30.07842 -25.88242 -25.88156 -25.88151 -25.88080
 Alpha  occ. eigenvalues --  -25.88008 -25.87954 -25.85424 -25.84896 -25.84433
 Alpha  occ. eigenvalues --  -19.00207 -18.99993 -18.99986 -18.99899 -18.99891
 Alpha  occ. eigenvalues --  -18.99665 -18.99570 -18.99513 -18.99420 -18.98820
 Alpha  occ. eigenvalues --  -18.98776 -18.98616 -18.98557 -18.98389 -14.30083
 Alpha  occ. eigenvalues --  -14.24568 -10.19745 -10.19736 -10.19023 -10.18917
 Alpha  occ. eigenvalues --  -10.18894 -10.18797  -3.67923  -3.67802  -3.64612
 Alpha  occ. eigenvalues --   -2.42075  -2.42019  -2.41901  -2.41724  -2.41716
 Alpha  occ. eigenvalues --   -2.41604  -2.39639  -2.38537  -2.37657  -1.08743
 Alpha  occ. eigenvalues --   -1.08167  -1.07839  -1.07671  -1.07425  -1.07270
 Alpha  occ. eigenvalues --   -1.06674  -1.00897  -1.00430  -1.00115  -0.99857
 Alpha  occ. eigenvalues --   -0.99762  -0.99602  -0.95591  -0.91498  -0.61237
 Alpha  occ. eigenvalues --   -0.59972  -0.59754  -0.59576  -0.59341  -0.59134
 Alpha  occ. eigenvalues --   -0.55590  -0.51340  -0.50862  -0.50705  -0.49814
 Alpha  occ. eigenvalues --   -0.49611  -0.49530  -0.49283  -0.48836  -0.48648
 Alpha  occ. eigenvalues --   -0.47904  -0.47837  -0.47510  -0.46397  -0.45985
 Alpha  occ. eigenvalues --   -0.45513  -0.44496  -0.44301  -0.43708  -0.43383
 Alpha  occ. eigenvalues --   -0.43149  -0.42152  -0.41830  -0.41189  -0.40773
 Alpha  occ. eigenvalues --   -0.40760  -0.40102  -0.39920  -0.39637  -0.39568
 Alpha  occ. eigenvalues --   -0.39375  -0.39052  -0.38354  -0.38237  -0.38016
 Alpha  occ. eigenvalues --   -0.37071  -0.34802  -0.34452  -0.33922  -0.31922
 Alpha  occ. eigenvalues --   -0.31290  -0.31218  -0.30843  -0.30429  -0.30380
 Alpha  occ. eigenvalues --   -0.30234  -0.30202  -0.30022  -0.29384  -0.29170
 Alpha  occ. eigenvalues --   -0.28530  -0.28303  -0.27183  -0.26867  -0.26674
 Alpha  occ. eigenvalues --   -0.26370  -0.25115  -0.24209  -0.23925  -0.22795
 Alpha virt. eigenvalues --   -0.14362  -0.05455  -0.04530  -0.04351  -0.04307
 Alpha virt. eigenvalues --   -0.04109  -0.03466  -0.03221   0.01456   0.02120
 Alpha virt. eigenvalues --    0.04925   0.05820   0.07024   0.07681   0.07750

  Beta  occ. eigenvalues -- -255.65898-255.65810-255.63044 -29.99559 -29.99456
  Beta  occ. eigenvalues --  -29.96456 -25.79797 -25.79698 -25.79655 -25.79609
  Beta  occ. eigenvalues --  -25.79543 -25.79507 -25.76785 -25.76618 -25.76369
  Beta  occ. eigenvalues --  -19.00328 -18.99675 -18.99666 -18.99590 -18.99582
  Beta  occ. eigenvalues --  -18.99285 -18.99189 -18.99118 -18.99024 -18.98534
  Beta  occ. eigenvalues --  -18.98478 -18.98335 -18.98259 -18.96512 -14.30480
  Beta  occ. eigenvalues --  -14.25039 -10.19746 -10.19738 -10.19022 -10.18912
  Beta  occ. eigenvalues --  -10.18897 -10.18794  -3.43202  -3.43153  -3.40263
  Beta  occ. eigenvalues --   -2.17987  -2.17916  -2.17447  -2.17412  -2.17389
  Beta  occ. eigenvalues --   -2.17359  -2.14889  -2.14694  -2.14440  -1.08090
  Beta  occ. eigenvalues --   -1.07847  -1.07515  -1.07136  -1.06970  -1.06715
  Beta  occ. eigenvalues --   -1.06560  -1.00119  -0.99653  -0.99279  -0.99035
  Beta  occ. eigenvalues --   -0.98913  -0.98761  -0.93819  -0.90439  -0.60463
  Beta  occ. eigenvalues --   -0.59167  -0.59143  -0.58911  -0.58427  -0.58261
  Beta  occ. eigenvalues --   -0.57210  -0.50040  -0.49378  -0.48451  -0.48281
  Beta  occ. eigenvalues --   -0.48228  -0.47686  -0.47541  -0.47419  -0.47274
  Beta  occ. eigenvalues --   -0.47044  -0.46874  -0.46764  -0.45968  -0.44416
  Beta  occ. eigenvalues --   -0.43579  -0.43081  -0.42894  -0.42459  -0.41429
  Beta  occ. eigenvalues --   -0.41154  -0.40960  -0.37843  -0.36950  -0.33234
  Beta  occ. eigenvalues --   -0.33175  -0.32233  -0.31942  -0.31895  -0.31164
  Beta  occ. eigenvalues --   -0.30844  -0.30702  -0.30417  -0.30261  -0.30179
  Beta  occ. eigenvalues --   -0.29575  -0.29348  -0.28994  -0.28834  -0.28618
  Beta  occ. eigenvalues --   -0.28466  -0.28309  -0.27957  -0.27332  -0.26861
  Beta  occ. eigenvalues --   -0.20860
  Beta virt. eigenvalues --   -0.18916  -0.18835  -0.18463  -0.18199  -0.17400
  Beta virt. eigenvalues --   -0.15967  -0.15745  -0.15145  -0.14087  -0.13813
  Beta virt. eigenvalues --   -0.12403  -0.11487  -0.11280  -0.11160  -0.08104

 Mulliken charges and spin densities:
               1          2
     1  O   -0.559094   0.108295
     2  O   -0.523904   0.079847
     3  C    0.689801  -0.003030
     4  H    0.054863   0.020078
     5  O   -0.536894   0.085975
     6  O   -0.548693   0.078554
     7  C    0.684572  -0.003523
     8  H    0.058272   0.018436
     9  O   -0.550552   0.065790
    10  O   -0.538210   0.084924
    11  O   -0.547646   0.078738
    12  C    0.684599  -0.003304
    13  H    0.058295   0.018380
    14  O   -0.536094   0.073224
    15  O   -0.548564   0.106976
    16  C    0.694430  -0.002580
    17  H    0.056125   0.019129
    18  Fe   0.999124   4.156213
    19  O   -0.537540   0.073400
    20  Fe   1.026547   4.266977
    21  O   -0.559395   0.108760
    22  O   -0.550463   0.107441
    23  Fe   1.023926   4.259334
    24  O   -0.725294   0.637140
    25  C    0.687222  -0.000236
    26  H    0.052415   0.020129
    27  C    0.696915  -0.000764
    28  H    0.054190   0.019113
    29  N    0.231368  -0.154709
    30  N   -0.132267  -0.221516
    31  O   -0.358052  -0.097189
 Sum of Mulliken charges =  -0.00000  14.00000

 Dipole moment (field-independent basis, Debye):
    X=             -3.0241    Y=             -0.6491    Z=              0.0599  Tot=              3.0936
 Quadrupole moment (field-independent basis, Debye-Ang):
   XX=           -170.1359   YY=           -160.0264   ZZ=           -152.8818
   XY=             -2.4049   XZ=              0.2601   YZ=             -0.0621

  Exact polarizability:     358.095      -7.613     214.581       4.050      -1.168     191.587
 Approx polarizability:     900.192     -61.784     441.413      12.724      -1.725     319.717

 Optimization completed.
    -- Stationary point found.

                          Input orientation:
 ---------------------------------------------------------------------
 Center     Atomic      Atomic             Coordinates (Angstroms)
 Number     Number       Type             X           Y           Z
 ---------------------------------------------------------------------
      1          8           0       -0.801253    2.549731   -1.325370
      2          8           0        1.259982    1.687404   -1.625781
      3          6           0        0.314438    2.441774   -1.908175
      4          1           0        0.453556    3.108523   -2.776149
      5          8           0       -2.392758   -1.701524    1.463257
      6          8           0       -2.924921    0.485352    1.363575
      7          6           0       -3.035025   -0.678850    1.808036
      8          1           0       -3.784783   -0.828738    2.602328
      9          8           0        1.817998   -1.215989   -1.349403
     10          8           0       -2.952855    0.768600   -1.387963
     11          8           0       -2.581584   -1.450940   -1.284736
     12          6           0       -3.155220   -0.426543   -1.716457
     13          1           0       -3.932163   -0.588700   -2.481673
     14          8           0        1.215727    1.966778    1.295479
     15          8           0       -0.966674    2.505918    1.492533
     16          6           0        0.259352    2.576594    1.799629
     17          1           0        0.489658    3.273638    2.623047
     18         26           0        1.658160    0.426921   -0.035531
     19          8           0        1.844466   -0.913901    1.556411
     20         26           0       -1.006207   -1.739548   -0.004856
     21          8           0        0.272868   -2.510862    1.305438
     22          8           0        0.003344   -2.549268   -1.498963
     23         26           0       -1.639742    1.362234    0.027235
     24          8           0       -0.377067    0.001525   -0.006371
     25          6           0        1.288692   -1.986401    1.844047
     26          1           0        1.725809   -2.568385    2.673696
     27          6           0        1.160420   -2.152194   -1.829055
     28          1           0        1.625796   -2.724990   -2.649389
     29          7           0        4.593275   -0.205925    0.167680
     30          7           0        5.713474   -0.120375    0.199181
     31          8           0        3.467941    0.797914   -0.068885
 ---------------------------------------------------------------------

 ******    1 imaginary frequencies (negative Signs) ******

                      1                      2                      3
                      A                      A                      A
 Frequencies --   -698.5561                17.5136                32.8701
 Red. masses --     15.0360                12.5677                11.1017
 Frc consts  --      4.3230                 0.0023                 0.0071
 IR Inten    --    111.7085                 0.0018                 0.0204

                      4                      5                      6
                      A                      A                      A
 Frequencies --     35.0605                41.5307                51.2946
 Red. masses --     10.2289                13.0691                13.0200
 Frc consts  --      0.0074                 0.0133                 0.0202
 IR Inten    --      0.0796                 0.1622                 0.0307

                      7                      8                      9
                      A                      A                      A
 Frequencies --     68.2960                83.5917                84.5755
 Red. masses --     12.9858                12.3482                 9.1004
 Frc consts  --      0.0357                 0.0508                 0.0384
 IR Inten    --      0.3113                 0.0779                 0.0454

                     10                     11                     12
                      A                      A                      A
 Frequencies --     94.5043               102.9428               109.3116
 Red. masses --      7.3022                 7.7201                 8.8043
 Frc consts  --      0.0384                 0.0482                 0.0620
 IR Inten    --      0.6697                 0.1414                 1.6697

                     13                     14                     15
                      A                      A                      A
 Frequencies --    122.6766               129.8108               135.5939
 Red. masses --      5.4783                10.9580                13.9679
 Frc consts  --      0.0486                 0.1088                 0.1513
 IR Inten    --      0.0304                 0.0985                 0.2514

                     16                     17                     18
                      A                      A                      A
 Frequencies --    144.6926               149.7417               152.4412
 Red. masses --      5.6116                12.1006                11.4997
 Frc consts  --      0.0692                 0.1599                 0.1574
 IR Inten    --      1.5111                 1.0533                 0.0905

                     19                     20                     21
                      A                      A                      A
 Frequencies --    155.7983               161.9704               174.8362
 Red. masses --     11.3426                12.2150                15.8142
 Frc consts  --      0.1622                 0.1888                 0.2848
 IR Inten    --      0.0249                14.8413                 4.1249

                     22                     23                     24
                      A                      A                      A
 Frequencies --    176.9594               178.5188               186.7418
 Red. masses --     10.1198                 4.4808                13.1452
 Frc consts  --      0.1867                 0.0841                 0.2701
 IR Inten    --      2.9771                 2.7995                 7.6863

                     25                     26                     27
                      A                      A                      A
 Frequencies --    193.9786               211.7167               223.3664
 Red. masses --     14.3240                11.6153                 3.7862
 Frc consts  --      0.3176                 0.3068                 0.1113
 IR Inten    --      0.9220                 1.8773                 0.5590

                     28                     29                     30
                      A                      A                      A
 Frequencies --    225.1838               237.9417               240.7153
 Red. masses --      5.6990                 4.0510                 5.3476
 Frc consts  --      0.1703                 0.1351                 0.1826
 IR Inten    --      0.8843                 0.2461                 0.6070

                     31                     32                     33
                      A                      A                      A
 Frequencies --    254.1390               277.2675               278.6296
 Red. masses --     10.7358                 6.5026                 4.7926
 Frc consts  --      0.4085                 0.2945                 0.2192
 IR Inten    --      3.7621                 5.5970                10.4420

                     34                     35                     36
                      A                      A                      A
 Frequencies --    286.4396               290.2055               295.4632
 Red. masses --      3.7388                 5.4333                 7.8879
 Frc consts  --      0.1807                 0.2696                 0.4057
 IR Inten    --     18.6491                34.6594                22.9410

                     37                     38                     39
                      A                      A                      A
 Frequencies --    297.3382               311.5650               314.4079
 Red. masses --      9.5768                 5.1822                 7.4040
 Frc consts  --      0.4989                 0.2964                 0.4312
 IR Inten    --     22.2430                18.9292                30.4611

                     40                     41                     42
                      A                      A                      A
 Frequencies --    330.5825               337.2041               364.4682
 Red. masses --      7.5607                10.2487                 8.9158
 Frc consts  --      0.4868                 0.6866                 0.6978
 IR Inten    --      9.3331                12.9736                 5.2649

                     43                     44                     45
                      A                      A                      A
 Frequencies --    379.4741               386.3901               405.8466
 Red. masses --     12.0661                11.0469                13.9425
 Frc consts  --      1.0237                 0.9717                 1.3531
 IR Inten    --     76.2367                 5.5304               216.0988

                     46                     47                     48
                      A                      A                      A
 Frequencies --    433.7017               443.5393               564.4539
 Red. masses --     14.3562                14.1811                17.6451
 Frc consts  --      1.5910                 1.6437                 3.3123
 IR Inten    --    216.4750               114.6174               224.5090

                     49                     50                     51
                      A                      A                      A
 Frequencies --    573.8986               672.2405               733.8896
 Red. masses --     16.8063                15.8559                11.3225
 Frc consts  --      3.2613                 4.2217                 3.5930
 IR Inten    --     15.7204               137.9752                 9.3864

                     52                     53                     54
                      A                      A                      A
 Frequencies --    736.5355               741.2036               748.2657
 Red. masses --     11.2476                11.2688                11.3909
 Frc consts  --      3.5950                 3.6476                 3.7577
 IR Inten    --      0.0645                73.9886                 8.5234

                     55                     56                     57
                      A                      A                      A
 Frequencies --    750.3660               751.7465              1051.1504
 Red. masses --     11.7718                11.4420                 1.6897
 Frc consts  --      3.9052                 3.8098                 1.1000
 IR Inten    --     12.9600                20.6041                 0.0418

                     58                     59                     60
                      A                      A                      A
 Frequencies --   1052.2039              1052.6031              1052.7025
 Red. masses --      1.6863                 1.6888                 1.6872
 Frc consts  --      1.1000                 1.1025                 1.1016
 IR Inten    --      0.0661                 0.1247                 0.0150

                     61                     62                     63
                      A                      A                      A
 Frequencies --   1053.7942              1055.2894              1371.1288
 Red. masses --      1.6922                 1.6796                 4.1980
 Frc consts  --      1.1072                 1.1020                 4.6499
 IR Inten    --      0.0070                 0.0003                67.6284

                     64                     65                     66
                      A                      A                      A
 Frequencies --   1373.9127              1382.9794              1385.2517
 Red. masses --      3.7358                 2.8843                 2.4459
 Frc consts  --      4.1548                 3.2503                 2.7653
 IR Inten    --    147.5540               107.7576               252.5283

                     67                     68                     69
                      A                      A                      A
 Frequencies --   1390.3893              1390.4102              1396.6236
 Red. masses --      1.1699                 1.3760                 2.9342
 Frc consts  --      1.3325                 1.5674                 3.3721
 IR Inten    --      0.4565                65.9933               117.1319

                     70                     71                     72
                      A                      A                      A
 Frequencies --   1398.5689              1399.4358              1399.8772
 Red. masses --      1.3727                 1.3708                 2.0645
 Frc consts  --      1.5819                 1.5818                 2.3837
 IR Inten    --     27.1777                90.1822               125.2964

                     73                     74                     75
                      A                      A                      A
 Frequencies --   1401.4397              1406.4896              1575.0457
 Red. masses --      1.5771                 3.4766                10.8274
 Frc consts  --      1.8250                 4.0521                15.8256
 IR Inten    --    131.5868                24.5710                 1.1872

                     76                     77                     78
                      A                      A                      A
 Frequencies --   1596.7509              1602.2074              1605.3475
 Red. masses --     11.4998                11.4844                11.5291
 Frc consts  --     17.2749                17.3699                17.5059
 IR Inten    --      0.5509                16.2241                 4.7384

                     79                     80                     81
                      A                      A                      A
 Frequencies --   1678.9249              1687.5733              2047.8107
 Red. masses --     11.5006                11.3981                14.0167
 Frc consts  --     19.1001                19.1253                34.6319
 IR Inten    --   1105.7081              1222.7857               322.8992

                     82                     83                     84
                      A                      A                      A
 Frequencies --   2978.3513              2982.8323              2983.0498
 Red. masses --      1.0841                 1.0844                 1.0842
 Frc consts  --      5.6658                 5.6844                 5.6843
 IR Inten    --     81.2864               112.2049                65.4921

                     85                     86                     87
                      A                      A                      A
 Frequencies --   2984.9669              2991.0535              2993.3298
 Red. masses --      1.0845                 1.0848                 1.0853
 Frc consts  --      5.6934                 5.7181                 5.7293
 IR Inten    --     73.9908                83.1045               109.6018

 - Thermochemistry -
 -------------------
 Temperature   298.150 Kelvin.  Pressure   1.00000 Atm.
 Atom     1 has atomic number  8 and mass  15.99491

 Molecular mass:   497.78672 amu.
 Principal axes and moments of inertia in atomic units:
                           1         2         3
     Eigenvalues --  6800.17870********************
           X            0.99967  -0.02351  -0.00993
           Y            0.02360   0.99968   0.00913
           Z            0.00972  -0.00936   0.99991
 This molecule is an asymmetric top.
 Rotational symmetry number  1.
 Warning -- assumption of classical behavior for rotation
           may cause significant error
 Rotational temperatures (Kelvin)      0.01274     0.00826     0.00691
 Rotational constants (GHZ):           0.26540     0.17212     0.14405
    1 imaginary frequencies ignored.
 Zero-point vibrational energy     410348.6 (Joules/Mol)
                                   98.07567 (Kcal/Mol)
 Warning -- explicit consideration of  48 degrees of freedom as
           vibrations may cause significant error
 Vibrational temperatures:     25.20    47.29    50.44    59.75    73.80
          (Kelvin)             98.26   120.27   121.69   135.97   148.11
                              157.28   176.50   186.77   195.09   208.18
                              215.44   219.33   224.16   233.04   251.55
                              254.61   256.85   268.68   279.09   304.61
                              321.37   323.99   342.35   346.34   365.65
                              398.93   400.89   412.12   417.54   425.11
                              427.80   448.27   452.36   475.63   485.16
                              524.39   545.98   555.93   583.92   624.00
                              638.15   812.12   825.71   967.20  1055.90
                             1059.71  1066.43  1076.59  1079.61  1081.60
                             1512.37  1513.89  1514.46  1514.60  1516.17
                             1518.33  1972.75  1976.75  1989.80  1993.07
                             2000.46  2000.49  2009.43  2012.23  2013.48
                             2014.11  2016.36  2023.62  2266.14  2297.37
                             2305.22  2309.74  2415.60  2428.04  2946.34
                             4285.18  4291.63  4291.94  4294.70  4303.46
                             4306.73

 Zero-point correction=                           0.156294 (Hartree/Particle)
 Thermal correction to Energy=                    0.186606
 Thermal correction to Enthalpy=                  0.187550
 Thermal correction to Gibbs Free Energy=         0.090926
 Sum of electronic and zero-point Energies=          -5186.599743
 Sum of electronic and thermal Energies=             -5186.569431
 Sum of electronic and thermal Enthalpies=           -5186.568487
 Sum of electronic and thermal Free Energies=        -5186.665110

                     E (Thermal)             CV                S
                      KCal/Mol        Cal/Mol-Kelvin    Cal/Mol-Kelvin
 Total                  117.097             99.534            203.362
 Electronic               0.000              0.000              5.381
 Translational            0.889              2.981             44.502
 Rotational               0.889              2.981             35.145
 Vibrational            115.320             93.573            118.333
 Vibration     1          0.593              1.986              6.898
 Vibration     2          0.594              1.983              5.648
 Vibration     3          0.594              1.982              5.520
 Vibration     4          0.594              1.981              5.185
 Vibration     5          0.596              1.977              4.767
 Vibration     6          0.598              1.969              4.202
 Vibration     7          0.600              1.960              3.805
 Vibration     8          0.601              1.960              3.782
 Vibration     9          0.603              1.953              3.565
 Vibration    10          0.605              1.947              3.398
 Vibration    11          0.606              1.942              3.281
 Vibration    12          0.610              1.930              3.058
 Vibration    13          0.612              1.923              2.949
 Vibration    14          0.613              1.918              2.865
 Vibration    15          0.616              1.908              2.741
 Vibration    16          0.618              1.903              2.676
 Vibration    17          0.619              1.900              2.642
 Vibration    18          0.620              1.896              2.600
 Vibration    19          0.622              1.889              2.527
 Vibration    20          0.627              1.873              2.383
 Vibration    21          0.628              1.871              2.360
 Vibration    22          0.629              1.869              2.344
 Vibration    23          0.632              1.858              2.260
 Vibration    24          0.635              1.848              2.189
 Vibration    25          0.643              1.823              2.029
 Vibration    26          0.649              1.805              1.932
 Vibration    27          0.650              1.803              1.917
 Vibration    28          0.656              1.783              1.818
 Vibration    29          0.658              1.778              1.798
 Vibration    30          0.665              1.756              1.702
 Vibration    31          0.678              1.716              1.550
 Vibration    32          0.679              1.713              1.542
 Vibration    33          0.684              1.699              1.495
 Vibration    34          0.686              1.692              1.473
 Vibration    35          0.690              1.682              1.442
 Vibration    36          0.691              1.679              1.432
 Vibration    37          0.700              1.652              1.354
 Vibration    38          0.702              1.646              1.339
 Vibration    39          0.713              1.614              1.257
 Vibration    40          0.718              1.601              1.225
 Vibration    41          0.738              1.545              1.103
 Vibration    42          0.749              1.514              1.041
 Vibration    43          0.755              1.499              1.014
 Vibration    44          0.771              1.458              0.941
 Vibration    45          0.794              1.397              0.847
 Vibration    46          0.803              1.375              0.816
 Vibration    47          0.920              1.108              0.515
 Vibration    48          0.930              1.088              0.497

 Normal termination of Gaussian 16 at Tue Feb  7 07:11:25 2023.
