 Gaussian 16, Revision C.02,
 Gaussian 16:  ES64L-G16RevC.02  7-Dec-2021

 ----------------------------------------------------------------------
 #p freq=raman scale=0.967 guess=read geom=allcheck gen um06l int=grid=
 ultrafine scf=(xqc,intrep,maxconventionalcycle=150) pop=(hirshfeld) no
 symm
 ----------------------------------------------------------------------

 Structure from the checkpoint file:  "/scratch1/svicchi/G09-103703.pbs02/02-freq/FeFeFe-TS1-0xH2O-freq.chk"
 ----------------
 FeFeFe-TS1-0xH2O
 ----------------
 Charge =  0 Multiplicity =15

                          Input orientation:
 ---------------------------------------------------------------------
 Center     Atomic      Atomic             Coordinates (Angstroms)
 Number     Number       Type             X           Y           Z
 ---------------------------------------------------------------------
      1          8           0       -0.801253    2.549731   -1.325370
      2          8           0        1.259982    1.687404   -1.625781
      3          6           0        0.314438    2.441774   -1.908175
      4          1           0        0.453556    3.108523   -2.776149
      5          8           0       -2.392758   -1.701524    1.463257
      6          8           0       -2.924921    0.485352    1.363575
      7          6           0       -3.035025   -0.678850    1.808036
      8          1           0       -3.784783   -0.828738    2.602328
      9          8           0        1.817998   -1.215989   -1.349403
     10          8           0       -2.952855    0.768600   -1.387963
     11          8           0       -2.581584   -1.450940   -1.284736
     12          6           0       -3.155220   -0.426543   -1.716457
     13          1           0       -3.932163   -0.588700   -2.481673
     14          8           0        1.215727    1.966778    1.295479
     15          8           0       -0.966674    2.505918    1.492533
     16          6           0        0.259352    2.576594    1.799629
     17          1           0        0.489658    3.273638    2.623047
     18         26           0        1.658160    0.426921   -0.035531
     19          8           0        1.844466   -0.913901    1.556411
     20         26           0       -1.006207   -1.739548   -0.004856
     21          8           0        0.272868   -2.510862    1.305438
     22          8           0        0.003344   -2.549268   -1.498963
     23         26           0       -1.639742    1.362234    0.027235
     24          8           0       -0.377067    0.001525   -0.006371
     25          6           0        1.288692   -1.986401    1.844047
     26          1           0        1.725809   -2.568385    2.673696
     27          6           0        1.160420   -2.152194   -1.829055
     28          1           0        1.625796   -2.724990   -2.649389
     29          7           0        4.593275   -0.205925    0.167680
     30          7           0        5.713474   -0.120375    0.199181
     31          8           0        3.467941    0.797914   -0.068885
 ---------------------------------------------------------------------

 SCF Done:  E(UM06L) =  -5186.75603677     A.U. after    1 cycles

 Alpha  occ. eigenvalues -- -255.66083-255.65994-255.63211 -30.11127 -30.11000
 Alpha  occ. eigenvalues --  -30.07842 -25.88242 -25.88156 -25.88151 -25.88080
 Alpha  occ. eigenvalues --  -25.88008 -25.87954 -25.85424 -25.84896 -25.84433
 Alpha  occ. eigenvalues --  -19.00207 -18.99993 -18.99986 -18.99899 -18.99891
 Alpha  occ. eigenvalues --  -18.99665 -18.99570 -18.99513 -18.99420 -18.98820
 Alpha  occ. eigenvalues --  -18.98776 -18.98616 -18.98557 -18.98389 -14.30083
 Alpha  occ. eigenvalues --  -14.24568 -10.19745 -10.19736 -10.19023 -10.18917
 Alpha  occ. eigenvalues --  -10.18894 -10.18797  -3.67923  -3.67802  -3.64612
 Alpha  occ. eigenvalues --   -2.42075  -2.42019  -2.41901  -2.41724  -2.41716
 Alpha  occ. eigenvalues --   -2.41604  -2.39639  -2.38537  -2.37657  -1.08743
 Alpha  occ. eigenvalues --   -1.08167  -1.07839  -1.07671  -1.07425  -1.07270
 Alpha  occ. eigenvalues --   -1.06674  -1.00897  -1.00430  -1.00115  -0.99857
 Alpha  occ. eigenvalues --   -0.99762  -0.99602  -0.95591  -0.91498  -0.61237
 Alpha  occ. eigenvalues --   -0.59972  -0.59754  -0.59576  -0.59341  -0.59134
 Alpha  occ. eigenvalues --   -0.55590  -0.51340  -0.50862  -0.50705  -0.49814
 Alpha  occ. eigenvalues --   -0.49611  -0.49530  -0.49283  -0.48836  -0.48648
 Alpha  occ. eigenvalues --   -0.47904  -0.47837  -0.47510  -0.46397  -0.45985
 Alpha  occ. eigenvalues --   -0.45513  -0.44496  -0.44301  -0.43708  -0.43383
 Alpha  occ. eigenvalues --   -0.43149  -0.42152  -0.41830  -0.41189  -0.40773
 Alpha  occ. eigenvalues --   -0.40760  -0.40102  -0.39920  -0.39637  -0.39568
 Alpha  occ. eigenvalues --   -0.39375  -0.39052  -0.38354  -0.38237  -0.38016
 Alpha  occ. eigenvalues --   -0.37071  -0.34802  -0.34452  -0.33922  -0.31922
 Alpha  occ. eigenvalues --   -0.31290  -0.31218  -0.30843  -0.30429  -0.30380
 Alpha  occ. eigenvalues --   -0.30234  -0.30202  -0.30022  -0.29384  -0.29170
 Alpha  occ. eigenvalues --   -0.28530  -0.28303  -0.27183  -0.26867  -0.26674
 Alpha  occ. eigenvalues --   -0.26370  -0.25115  -0.24209  -0.23925  -0.22795
 Alpha virt. eigenvalues --   -0.14362  -0.05455  -0.04530  -0.04351  -0.04307
 Alpha virt. eigenvalues --   -0.04109  -0.03466  -0.03221   0.01456   0.02120
 Alpha virt. eigenvalues --    0.04925   0.05820   0.07024   0.07681   0.07750

  Beta  occ. eigenvalues -- -255.65898-255.65810-255.63044 -29.99559 -29.99456
  Beta  occ. eigenvalues --  -29.96456 -25.79797 -25.79698 -25.79655 -25.79609
  Beta  occ. eigenvalues --  -25.79543 -25.79507 -25.76785 -25.76618 -25.76369
  Beta  occ. eigenvalues --  -19.00328 -18.99675 -18.99666 -18.99590 -18.99582
  Beta  occ. eigenvalues --  -18.99285 -18.99189 -18.99118 -18.99024 -18.98534
  Beta  occ. eigenvalues --  -18.98478 -18.98335 -18.98259 -18.96512 -14.30480
  Beta  occ. eigenvalues --  -14.25039 -10.19746 -10.19738 -10.19022 -10.18912
  Beta  occ. eigenvalues --  -10.18897 -10.18794  -3.43202  -3.43153  -3.40263
  Beta  occ. eigenvalues --   -2.17987  -2.17916  -2.17447  -2.17412  -2.17389
  Beta  occ. eigenvalues --   -2.17359  -2.14889  -2.14694  -2.14440  -1.08090
  Beta  occ. eigenvalues --   -1.07847  -1.07515  -1.07136  -1.06970  -1.06715
  Beta  occ. eigenvalues --   -1.06560  -1.00119  -0.99653  -0.99279  -0.99035
  Beta  occ. eigenvalues --   -0.98913  -0.98761  -0.93819  -0.90439  -0.60463
  Beta  occ. eigenvalues --   -0.59167  -0.59143  -0.58911  -0.58427  -0.58261
  Beta  occ. eigenvalues --   -0.57210  -0.50040  -0.49378  -0.48451  -0.48281
  Beta  occ. eigenvalues --   -0.48228  -0.47686  -0.47541  -0.47419  -0.47274
  Beta  occ. eigenvalues --   -0.47044  -0.46874  -0.46764  -0.45968  -0.44416
  Beta  occ. eigenvalues --   -0.43579  -0.43081  -0.42894  -0.42459  -0.41429
  Beta  occ. eigenvalues --   -0.41154  -0.40960  -0.37843  -0.36950  -0.33234
  Beta  occ. eigenvalues --   -0.33175  -0.32233  -0.31942  -0.31895  -0.31164
  Beta  occ. eigenvalues --   -0.30844  -0.30702  -0.30417  -0.30261  -0.30179
  Beta  occ. eigenvalues --   -0.29575  -0.29348  -0.28994  -0.28834  -0.28618
  Beta  occ. eigenvalues --   -0.28466  -0.28309  -0.27957  -0.27332  -0.26861
  Beta  occ. eigenvalues --   -0.20860
  Beta virt. eigenvalues --   -0.18916  -0.18835  -0.18463  -0.18199  -0.17400
  Beta virt. eigenvalues --   -0.15967  -0.15745  -0.15145  -0.14086  -0.13813
  Beta virt. eigenvalues --   -0.12403  -0.11487  -0.11280  -0.11160  -0.08104

 Mulliken charges and spin densities:
               1          2
     1  O   -0.559094   0.108295
     2  O   -0.523906   0.079847
     3  C    0.689802  -0.003030
     4  H    0.054862   0.020078
     5  O   -0.536894   0.085975
     6  O   -0.548692   0.078554
     7  C    0.684571  -0.003522
     8  H    0.058272   0.018436
     9  O   -0.550550   0.065789
    10  O   -0.538210   0.084924
    11  O   -0.547645   0.078738
    12  C    0.684598  -0.003304
    13  H    0.058295   0.018380
    14  O   -0.536094   0.073224
    15  O   -0.548565   0.106976
    16  C    0.694431  -0.002580
    17  H    0.056125   0.019129
    18  Fe   0.999126   4.156215
    19  O   -0.537539   0.073400
    20  Fe   1.026546   4.266976
    21  O   -0.559396   0.108761
    22  O   -0.550465   0.107441
    23  Fe   1.023929   4.259336
    24  O   -0.725295   0.637140
    25  C    0.687222  -0.000236
    26  H    0.052415   0.020129
    27  C    0.696915  -0.000764
    28  H    0.054190   0.019113
    29  N    0.231367  -0.154718
    30  N   -0.132268  -0.221508
    31  O   -0.358054  -0.097193
 Sum of Mulliken charges =  -0.00000  14.00000

 Dipole moment (field-independent basis, Debye):
    X=             -3.0241    Y=             -0.6491    Z=              0.0599  Tot=              3.0936
 Quadrupole moment (field-independent basis, Debye-Ang):
   XX=           -170.1361   YY=           -160.0264   ZZ=           -152.8818
   XY=             -2.4050   XZ=              0.2601   YZ=             -0.0621

  Exact polarizability:     358.094      -7.613     214.581       4.050      -1.168     191.587
 Approx polarizability:     900.183     -61.783     441.413      12.724      -1.725     319.717

 ******    1 imaginary frequencies (negative Signs) ******

                      1                      2                      3
                      A                      A                      A
 Frequencies --   -698.5510                17.5175                32.8685
 Red. masses --     15.0360                12.5674                11.1017
 Frc consts  --      4.3229                 0.0023                 0.0071
 IR Inten    --    111.7012                 0.0019                 0.0204
 Raman Activ --  13241.2609                 8.4375                 1.5763

                      4                      5                      6
                      A                      A                      A
 Frequencies --     35.0600                41.5314                51.2942
 Red. masses --     10.2289                13.0694                13.0202
 Frc consts  --      0.0074                 0.0133                 0.0202
 IR Inten    --      0.0796                 0.1622                 0.0307
 Raman Activ --      2.3404                 6.1249                 0.9520

                      7                      8                      9
                      A                      A                      A
 Frequencies --     68.3056                83.5912                84.5770
 Red. masses --     12.9844                12.3490                 9.1005
 Frc consts  --      0.0357                 0.0508                 0.0384
 IR Inten    --      0.3113                 0.0779                 0.0454
 Raman Activ --      1.1816                 2.3505                 0.1377

                     10                     11                     12
                      A                      A                      A
 Frequencies --     94.5042               102.9426               109.3113
 Red. masses --      7.3022                 7.7199                 8.8042
 Frc consts  --      0.0384                 0.0482                 0.0620
 IR Inten    --      0.6697                 0.1414                 1.6698
 Raman Activ --      2.1518                10.6383                 1.1524

                     13                     14                     15
                      A                      A                      A
 Frequencies --    122.6765               129.8105               135.5937
 Red. masses --      5.4783                10.9578                13.9675
 Frc consts  --      0.0486                 0.1088                 0.1513
 IR Inten    --      0.0304                 0.0986                 0.2514
 Raman Activ --     17.6108                 1.8459                 1.1816

                     16                     17                     18
                      A                      A                      A
 Frequencies --    144.6924               149.7414               152.4406
 Red. masses --      5.6117                12.1006                11.4995
 Frc consts  --      0.0692                 0.1599                 0.1574
 IR Inten    --      1.5111                 1.0533                 0.0905
 Raman Activ --      2.2214                 0.5362                 0.8684

                     19                     20                     21
                      A                      A                      A
 Frequencies --    155.7980               161.9702               174.8364
 Red. masses --     11.3426                12.2149                15.8139
 Frc consts  --      0.1622                 0.1888                 0.2848
 IR Inten    --      0.0249                14.8410                 4.1250
 Raman Activ --      0.7779                 2.4735                 8.0115

                     22                     23                     24
                      A                      A                      A
 Frequencies --    176.9593               178.5181               186.7415
 Red. masses --     10.1175                 4.4813                13.1452
 Frc consts  --      0.1867                 0.0841                 0.2701
 IR Inten    --      2.9773                 2.7994                 7.6863
 Raman Activ --      3.6469                 6.0760                 2.9877

                     25                     26                     27
                      A                      A                      A
 Frequencies --    193.9782               211.7167               223.3658
 Red. masses --     14.3238                11.6150                 3.7857
 Frc consts  --      0.3176                 0.3067                 0.1113
 IR Inten    --      0.9220                 1.8773                 0.5589
 Raman Activ --      5.0905                 4.4913                 8.0870

                     28                     29                     30
                      A                      A                      A
 Frequencies --    225.1834               237.9412               240.7152
 Red. masses --      5.7001                 4.0508                 5.3483
 Frc consts  --      0.1703                 0.1351                 0.1826
 IR Inten    --      0.8843                 0.2461                 0.6069
 Raman Activ --      2.2817                17.9050                 8.7230

                     31                     32                     33
                      A                      A                      A
 Frequencies --    254.1390               277.2672               278.6293
 Red. masses --     10.7358                 6.5025                 4.7926
 Frc consts  --      0.4085                 0.2945                 0.2192
 IR Inten    --      3.7619                 5.5974                10.4419
 Raman Activ --     29.2973                 5.5637                 1.4361

                     34                     35                     36
                      A                      A                      A
 Frequencies --    286.4391               290.2054               295.4631
 Red. masses --      3.7389                 5.4333                 7.8878
 Frc consts  --      0.1807                 0.2696                 0.4057
 IR Inten    --     18.6489                34.6600                22.9414
 Raman Activ --      7.5433                 1.9397                41.9873

                     37                     38                     39
                      A                      A                      A
 Frequencies --    297.3389               311.5652               314.4077
 Red. masses --      9.5769                 5.1822                 7.4039
 Frc consts  --      0.4989                 0.2964                 0.4312
 IR Inten    --     22.2431                18.9293                30.4601
 Raman Activ --    133.3790               296.1790               104.2974

                     40                     41                     42
                      A                      A                      A
 Frequencies --    330.5826               337.2041               364.4681
 Red. masses --      7.5610                10.2488                 8.9158
 Frc consts  --      0.4868                 0.6866                 0.6978
 IR Inten    --      9.3337                12.9729                 5.2646
 Raman Activ --    149.3148               315.4449                14.5083

                     43                     44                     45
                      A                      A                      A
 Frequencies --    379.4741               386.3901               405.8467
 Red. masses --     12.0661                11.0470                13.9425
 Frc consts  --      1.0237                 0.9717                 1.3531
 IR Inten    --     76.2361                 5.5307               216.0987
 Raman Activ --     74.8809               175.7078                 5.2274

                     46                     47                     48
                      A                      A                      A
 Frequencies --    433.7016               443.5393               564.4540
 Red. masses --     14.3563                14.1811                17.6451
 Frc consts  --      1.5910                 1.6437                 3.3123
 IR Inten    --    216.4757               114.6185               224.5135
 Raman Activ --      1.0326               150.3017              1425.4875

                     49                     50                     51
                      A                      A                      A
 Frequencies --    573.8988               672.2408               733.8894
 Red. masses --     16.8062                15.8559                11.3225
 Frc consts  --      3.2613                 4.2217                 3.5930
 IR Inten    --     15.7191               137.9754                 9.3860
 Raman Activ --      2.7543               349.9069                 3.1874

                     52                     53                     54
                      A                      A                      A
 Frequencies --    736.5354               741.2034               748.2656
 Red. masses --     11.2476                11.2688                11.3909
 Frc consts  --      3.5950                 3.6476                 3.7577
 IR Inten    --      0.0646                73.9893                 8.5236
 Raman Activ --      4.4508                 0.2659                30.1193

                     55                     56                     57
                      A                      A                      A
 Frequencies --    750.3659               751.7463              1051.1509
 Red. masses --     11.7718                11.4421                 1.6897
 Frc consts  --      3.9052                 3.8098                 1.1000
 IR Inten    --     12.9607                20.6030                 0.0418
 Raman Activ --     32.5501                13.7208                 0.5026

                     58                     59                     60
                      A                      A                      A
 Frequencies --   1052.2038              1052.6036              1052.7024
 Red. masses --      1.6863                 1.6888                 1.6872
 Frc consts  --      1.1000                 1.1025                 1.1016
 IR Inten    --      0.0661                 0.1247                 0.0150
 Raman Activ --      0.1689                 3.4523                 0.7041

                     61                     62                     63
                      A                      A                      A
 Frequencies --   1053.7942              1055.2892              1371.1287
 Red. masses --      1.6922                 1.6796                 4.1979
 Frc consts  --      1.1072                 1.1020                 4.6499
 IR Inten    --      0.0070                 0.0003                67.6328
 Raman Activ --      2.3754                 8.7346                 8.3209

                     64                     65                     66
                      A                      A                      A
 Frequencies --   1373.9129              1382.9795              1385.2519
 Red. masses --      3.7359                 2.8844                 2.4459
 Frc consts  --      4.1549                 3.2504                 2.7653
 IR Inten    --    147.5504               107.7577               252.5352
 Raman Activ --      7.7429                 0.8074                55.9632

                     67                     68                     69
                      A                      A                      A
 Frequencies --   1390.3892              1390.4101              1396.6237
 Red. masses --      1.1698                 1.3761                 2.9343
 Frc consts  --      1.3324                 1.5674                 3.3722
 IR Inten    --      0.4426                66.0074               117.1443
 Raman Activ --      7.3378                 5.4598                 3.5981

                     70                     71                     72
                      A                      A                      A
 Frequencies --   1398.5694              1399.4360              1399.8774
 Red. masses --      1.3727                 1.3709                 2.0645
 Frc consts  --      1.5819                 1.5818                 2.3837
 IR Inten    --     27.1600                90.1947               125.2892
 Raman Activ --      8.1844                 3.5032                 8.2610

                     73                     74                     75
                      A                      A                      A
 Frequencies --   1401.4400              1406.4897              1575.0454
 Red. masses --      1.5771                 3.4765                10.8274
 Frc consts  --      1.8250                 4.0519                15.8256
 IR Inten    --    131.5826                24.5690                 1.1873
 Raman Activ --      2.9105               128.9811                 2.3143

                     76                     77                     78
                      A                      A                      A
 Frequencies --   1596.7507              1602.2072              1605.3473
 Red. masses --     11.4998                11.4844                11.5291
 Frc consts  --     17.2749                17.3699                17.5059
 IR Inten    --      0.5510                16.2243                 4.7383
 Raman Activ --      3.0178               101.1223                22.0037

                     79                     80                     81
                      A                      A                      A
 Frequencies --   1678.9253              1687.5731              2047.8118
 Red. masses --     11.5006                11.3981                14.0167
 Frc consts  --     19.1000                19.1253                34.6319
 IR Inten    --   1105.7236              1222.7909               322.8953
 Raman Activ --   6191.3168               914.7840               205.9728

                     82                     83                     84
                      A                      A                      A
 Frequencies --   2978.3511              2982.8322              2983.0495
 Red. masses --      1.0841                 1.0844                 1.0842
 Frc consts  --      5.6658                 5.6844                 5.6843
 IR Inten    --     81.2866               112.2241                65.4736
 Raman Activ --    265.2292               166.0747               357.4378

                     85                     86                     87
                      A                      A                      A
 Frequencies --   2984.9667              2991.0534              2993.3298
 Red. masses --      1.0845                 1.0848                 1.0853
 Frc consts  --      5.6934                 5.7181                 5.7293
 IR Inten    --     73.9906                83.1046               109.6015
 Raman Activ --    476.4320               429.4985               902.1769

 - Thermochemistry -
 -------------------
 Temperature   298.150 Kelvin.  Pressure   1.00000 Atm.
 Thermochemistry will use frequencies scaled by 0.9670.

 Molecular mass:   497.78672 amu.
 Principal axes and moments of inertia in atomic units:
                           1         2         3
     Eigenvalues --  6800.17870********************
           X            0.99967  -0.02351  -0.00993
           Y            0.02360   0.99968   0.00913
           Z            0.00972  -0.00936   0.99991
 This molecule is an asymmetric top.
 Rotational symmetry number  1.
 Warning -- assumption of classical behavior for rotation
           may cause significant error
 Rotational temperatures (Kelvin)      0.01274     0.00826     0.00691
 Rotational constants (GHZ):           0.26540     0.17212     0.14405
    1 imaginary frequencies ignored.
 Zero-point vibrational energy     396807.2 (Joules/Mol)
                                   94.83919 (Kcal/Mol)
 Warning -- explicit consideration of  48 degrees of freedom as
           vibrations may cause significant error
 Vibrational temperatures:     24.37    45.73    48.78    57.78    71.37
          (Kelvin)             95.03   116.30   117.67   131.48   143.22
                              152.08   170.68   180.61   188.65   201.31
                              208.33   212.09   216.76   225.35   243.25
                              246.20   248.37   259.81   269.88   294.56
                              310.77   313.30   331.05   334.91   353.58
                              385.76   387.66   398.52   403.76   411.08
                              413.69   433.48   437.43   459.94   469.15
                              507.08   527.96   537.58   564.65   603.41
                              617.10   785.32   798.46   935.29  1021.06
                             1024.74  1031.23  1041.06  1043.98  1045.90
                             1462.46  1463.93  1464.48  1464.62  1466.14
                             1468.22  1907.65  1911.52  1924.14  1927.30
                             1934.44  1934.47  1943.12  1945.83  1947.03
                             1947.65  1949.82  1956.85  2191.36  2221.55
                             2229.15  2233.52  2335.88  2347.92  2849.12
                             4143.77  4150.01  4150.31  4152.98  4161.44
                             4164.61

 Zero-point correction=                           0.151136 (Hartree/Particle)
 Thermal correction to Energy=                    0.182020
 Thermal correction to Enthalpy=                  0.182964
 Thermal correction to Gibbs Free Energy=         0.084837
 Sum of electronic and zero-point Energies=          -5186.604901
 Sum of electronic and thermal Energies=             -5186.574017
 Sum of electronic and thermal Enthalpies=           -5186.573073
 Sum of electronic and thermal Free Energies=        -5186.671199

                     E (Thermal)             CV                S
                      KCal/Mol        Cal/Mol-Kelvin    Cal/Mol-Kelvin
 Total                  114.219            100.947            206.525
 Electronic               0.000              0.000              5.381
 Translational            0.889              2.981             44.502
 Rotational               0.889              2.981             35.145
 Vibrational            112.442             94.985            121.496
 Vibration     1          0.593              1.986              6.964
 Vibration     2          0.594              1.983              5.715
 Vibration     3          0.594              1.983              5.587
 Vibration     4          0.594              1.981              5.251
 Vibration     5          0.595              1.978              4.833
 Vibration     6          0.597              1.970              4.268
 Vibration     7          0.600              1.962              3.871
 Vibration     8          0.600              1.962              3.848
 Vibration     9          0.602              1.955              3.630
 Vibration    10          0.604              1.949              3.463
 Vibration    11          0.605              1.945              3.346
 Vibration    12          0.609              1.934              3.123
 Vibration    13          0.610              1.928              3.013
 Vibration    14          0.612              1.922              2.930
 Vibration    15          0.615              1.913              2.805
 Vibration    16          0.616              1.908              2.739
 Vibration    17          0.617              1.905              2.705
 Vibration    18          0.618              1.902              2.664
 Vibration    19          0.620              1.895              2.590
 Vibration    20          0.625              1.881              2.446
 Vibration    21          0.626              1.878              2.423
 Vibration    22          0.626              1.876              2.407
 Vibration    23          0.630              1.866              2.322
 Vibration    24          0.632              1.857              2.252
 Vibration    25          0.640              1.833              2.090
 Vibration    26          0.645              1.817              1.992
 Vibration    27          0.646              1.814              1.978
 Vibration    28          0.652              1.795              1.878
 Vibration    29          0.654              1.791              1.857
 Vibration    30          0.660              1.770              1.761
 Vibration    31          0.673              1.732              1.608
 Vibration    32          0.674              1.729              1.600
 Vibration    33          0.678              1.716              1.552
 Vibration    34          0.680              1.709              1.530
 Vibration    35          0.683              1.700              1.499
 Vibration    36          0.685              1.697              1.488
 Vibration    37          0.693              1.671              1.410
 Vibration    38          0.695              1.666              1.395
 Vibration    39          0.706              1.636              1.312
 Vibration    40          0.710              1.623              1.279
 Vibration    41          0.729              1.570              1.155
 Vibration    42          0.740              1.540              1.093
 Vibration    43          0.745              1.526              1.065
 Vibration    44          0.760              1.486              0.991
 Vibration    45          0.782              1.428              0.894
 Vibration    46          0.790              1.407              0.862
 Vibration    47          0.901              1.149              0.553
 Vibration    48          0.910              1.129              0.534

 Optimization completed.
    -- Stationary point found.
 Normal termination of Gaussian 16 at Wed Feb  8 00:55:56 2023.
