 Gaussian 16, Revision C.02,
 Gaussian 16:  ES64L-G16RevC.02  7-Dec-2021

 ----------------------------------------------------------------------
 #p freq=raman scale=0.967 guess=read geom=allcheck gen um06l int=grid=
 ultrafine scf=(xqc,intrep,maxconventionalcycle=150) pop=(hirshfeld) no
 symm
 ----------------------------------------------------------------------

 Structure from the checkpoint file:  "/scratch1/svicchi/G09-93351.pbs02/02-freq/FeFeFe-B-2xH2O-freq.chk"
 --------------
 FeFeFe-B-2xH2O
 --------------
 Charge =  0 Multiplicity =15

                          Input orientation:
 ---------------------------------------------------------------------
 Center     Atomic      Atomic             Coordinates (Angstroms)
 Number     Number       Type             X           Y           Z
 ---------------------------------------------------------------------
      1          8           0        1.654104   -2.108060   -1.587075
      2          8           0       -0.526169   -2.513544   -1.174096
      3          6           0        0.537150   -2.671063   -1.786764
      4          1           0        0.527499   -3.401721   -2.615711
      5          8           0        1.866797    2.236070    1.180184
      6          8           0        2.946151    0.272945    1.382121
      7          6           0        2.738628    1.475550    1.659291
      8          1           0        3.410980    1.918495    2.414972
      9          8           0       -2.106049   -0.130305   -1.490690
     10          8           0        2.809527    0.486539   -1.438213
     11          8           0        1.382451    2.213978   -1.624194
     12          6           0        2.384885    1.541889   -1.958105
     13          1           0        2.965823    1.931570   -2.813410
     14          8           0       -0.584441   -2.098590    1.776050
     15          8           0        1.609912   -2.281859    1.281187
     16          6           0        0.576307   -2.489457    1.976702
     17          1           0        0.733871   -3.106474    2.878451
     18         26           0       -1.396192   -1.141067    0.150473
     19          8           0       -2.203912    0.274962    1.466602
     20         26           0        0.148470    1.859447    0.029179
     21          8           0       -0.904179    2.103791    1.700791
     22          8           0       -1.425527    1.996524   -1.166060
     23         26           0        1.981819   -0.843969   -0.028618
     24          8           0        0.287423   -0.023408    0.040073
     25          6           0       -1.845344    1.324054    2.022954
     26          1           0       -2.420176    1.633154    2.913996
     27          6           0       -2.066457    1.081653   -1.755758
     28          1           0       -2.672760    1.412663   -2.616461
     29          7           0       -5.515820   -0.072341    0.495911
     30          7           0       -4.965039    0.637726   -0.129774
     31          8           0       -2.744409   -2.031597    0.238135
     32          8           0        0.240212    4.067771   -0.006181
     33          1           0        0.710570    4.243420   -0.831888
     34          1           0        0.879619    4.249023    0.695781
     35          8           0        3.996325   -1.719637   -0.363906
     36          1           0        4.470077   -0.986614   -0.778107
     37          1           0        3.775744   -2.312159   -1.097030
 ---------------------------------------------------------------------

 SCF Done:  E(UM06L) =  -5339.75985009     A.U. after    4 cycles

 Alpha  occ. eigenvalues -- -255.65156-255.65109-255.62345 -30.10217 -30.10174
 Alpha  occ. eigenvalues --  -30.06357 -25.87318 -25.87290 -25.87228 -25.87169
 Alpha  occ. eigenvalues --  -25.87142 -25.87101 -25.83859 -25.83817 -25.83433
 Alpha  occ. eigenvalues --  -19.02607 -19.02308 -18.99091 -18.99044 -18.99018
 Alpha  occ. eigenvalues --  -18.99004 -18.98450 -18.98395 -18.98328 -18.98143
 Alpha  occ. eigenvalues --  -18.97919 -18.97809 -18.97333 -18.97186 -18.96927
 Alpha  occ. eigenvalues --  -18.96521 -14.24184 -14.24041 -10.19051 -10.18920
 Alpha  occ. eigenvalues --  -10.17836 -10.17742 -10.17650 -10.17426  -3.67048
 Alpha  occ. eigenvalues --   -3.67009  -3.60207  -2.41181  -2.41174  -2.40981
 Alpha  occ. eigenvalues --   -2.40921  -2.40850  -2.40798  -2.35302  -2.35137
 Alpha  occ. eigenvalues --   -2.32851  -1.07890  -1.07379  -1.06726  -1.06568
 Alpha  occ. eigenvalues --   -1.06237  -1.06093  -1.05109  -1.04765  -1.04466
 Alpha  occ. eigenvalues --   -0.99942  -0.99627  -0.99008  -0.98816  -0.98529
 Alpha  occ. eigenvalues --   -0.98382  -0.93494  -0.88636  -0.60148  -0.59235
 Alpha  occ. eigenvalues --   -0.58668  -0.58364  -0.58095  -0.57907  -0.54960
 Alpha  occ. eigenvalues --   -0.54581  -0.50170  -0.49829  -0.49635  -0.49096
 Alpha  occ. eigenvalues --   -0.48797  -0.48558  -0.47997  -0.47778  -0.47621
 Alpha  occ. eigenvalues --   -0.47442  -0.46716  -0.46486  -0.46218  -0.46037
 Alpha  occ. eigenvalues --   -0.45041  -0.44111  -0.43455  -0.42866  -0.42702
 Alpha  occ. eigenvalues --   -0.41826  -0.41489  -0.41079  -0.40968  -0.40837
 Alpha  occ. eigenvalues --   -0.40761  -0.40112  -0.39758  -0.39554  -0.39290
 Alpha  occ. eigenvalues --   -0.38899  -0.38676  -0.38403  -0.37622  -0.37585
 Alpha  occ. eigenvalues --   -0.37512  -0.37218  -0.35772  -0.35280  -0.35085
 Alpha  occ. eigenvalues --   -0.34081  -0.33200  -0.32535  -0.32440  -0.30908
 Alpha  occ. eigenvalues --   -0.30409  -0.30126  -0.29647  -0.29540  -0.29232
 Alpha  occ. eigenvalues --   -0.28902  -0.28698  -0.28553  -0.28384  -0.28020
 Alpha  occ. eigenvalues --   -0.27743  -0.27213  -0.25734  -0.25499  -0.25114
 Alpha  occ. eigenvalues --   -0.23771  -0.23389  -0.22869  -0.22789  -0.22404
 Alpha virt. eigenvalues --   -0.14457  -0.04560  -0.03812  -0.02989  -0.02988
 Alpha virt. eigenvalues --   -0.02924  -0.02657  -0.02543  -0.02130   0.01092
 Alpha virt. eigenvalues --    0.02001   0.06252   0.07118   0.07295   0.07862

  Beta  occ. eigenvalues -- -255.64982-255.64935-255.62230 -29.98479 -29.98435
  Beta  occ. eigenvalues --  -29.97200 -25.78687 -25.78652 -25.78641 -25.78598
  Beta  occ. eigenvalues --  -25.78590 -25.78552 -25.77945 -25.76633 -25.76467
  Beta  occ. eigenvalues --  -19.02439 -19.02144 -18.98823 -18.98787 -18.98750
  Beta  occ. eigenvalues --  -18.98695 -18.98044 -18.97993 -18.97976 -18.97742
  Beta  occ. eigenvalues --  -18.97709 -18.97600 -18.97120 -18.96961 -18.95444
  Beta  occ. eigenvalues --  -18.94882 -14.24183 -14.24040 -10.19055 -10.18922
  Beta  occ. eigenvalues --  -10.17837 -10.17742 -10.17654 -10.17428  -3.41943
  Beta  occ. eigenvalues --   -3.41901  -3.41665  -2.18397  -2.16371  -2.16337
  Beta  occ. eigenvalues --   -2.16323  -2.16302  -2.16297  -2.16251  -2.14980
  Beta  occ. eigenvalues --   -2.14650  -1.07346  -1.06817  -1.06098  -1.05926
  Beta  occ. eigenvalues --   -1.05637  -1.05430  -1.05105  -1.04421  -1.04129
  Beta  occ. eigenvalues --   -0.99291  -0.98954  -0.98238  -0.98049  -0.97821
  Beta  occ. eigenvalues --   -0.97599  -0.89417  -0.84262  -0.59497  -0.58542
  Beta  occ. eigenvalues --   -0.58084  -0.57727  -0.57325  -0.57084  -0.54673
  Beta  occ. eigenvalues --   -0.54290  -0.49821  -0.49116  -0.48413  -0.47753
  Beta  occ. eigenvalues --   -0.47537  -0.46994  -0.46604  -0.46458  -0.46178
  Beta  occ. eigenvalues --   -0.46100  -0.46039  -0.45538  -0.45386  -0.43580
  Beta  occ. eigenvalues --   -0.42161  -0.41989  -0.41842  -0.41552  -0.41410
  Beta  occ. eigenvalues --   -0.40987  -0.40725  -0.40608  -0.40077  -0.36804
  Beta  occ. eigenvalues --   -0.36776  -0.35772  -0.34522  -0.34080  -0.32133
  Beta  occ. eigenvalues --   -0.31917  -0.31362  -0.30990  -0.30848  -0.30386
  Beta  occ. eigenvalues --   -0.30145  -0.29926  -0.29567  -0.29402  -0.28938
  Beta  occ. eigenvalues --   -0.28633  -0.28413  -0.28019  -0.27805  -0.27775
  Beta  occ. eigenvalues --   -0.27691  -0.27576  -0.26841  -0.25519  -0.25012
  Beta  occ. eigenvalues --   -0.24596
  Beta virt. eigenvalues --   -0.17780  -0.17700  -0.16969  -0.16721  -0.16533
  Beta virt. eigenvalues --   -0.14867  -0.14811  -0.11921  -0.11852  -0.11362
  Beta virt. eigenvalues --   -0.11125  -0.11005  -0.10226  -0.08915  -0.06064

 Mulliken charges and spin densities:
               1          2
     1  O   -0.610611   0.097119
     2  O   -0.513230   0.052678
     3  C    0.695238   0.003110
     4  H    0.042370   0.018365
     5  O   -0.599178   0.068713
     6  O   -0.547689   0.080801
     7  C    0.696761   0.002105
     8  H    0.045213   0.018615
     9  O   -0.496285   0.056671
    10  O   -0.596588   0.064127
    11  O   -0.591996   0.069237
    12  C    0.707574   0.000525
    13  H    0.040429   0.017910
    14  O   -0.490166   0.055223
    15  O   -0.563954   0.110547
    16  C    0.685099   0.000897
    17  H    0.051793   0.017089
    18  Fe   1.002607   3.206386
    19  O   -0.529238   0.058402
    20  Fe   1.004756   4.274688
    21  O   -0.557448   0.112609
    22  O   -0.566338   0.110733
    23  Fe   1.002280   4.274474
    24  O   -0.743109   0.494068
    25  C    0.690911   0.002916
    26  H    0.047072   0.018590
    27  C    0.698851  -0.001567
    28  H    0.050743   0.017165
    29  N   -0.013165  -0.001283
    30  N    0.007089   0.002743
    31  O   -0.440143   0.616990
    32  O   -0.547562   0.039990
    33  H    0.370950  -0.000148
    34  H    0.373126   0.000065
    35  O   -0.538214   0.039512
    36  H    0.365236   0.000236
    37  H    0.366812  -0.000299
 Sum of Mulliken charges =  -0.00000  14.00000

 Dipole moment (field-independent basis, Debye):
    X=              7.0166    Y=              4.1910    Z=             -1.8111  Tot=              8.3712
 Quadrupole moment (field-independent basis, Debye-Ang):
   XX=           -172.4714   YY=           -163.9567   ZZ=           -164.2113
   XY=             -2.6457   XZ=             -5.0621   YZ=              2.8236

  Exact polarizability:     260.769       7.212     247.090      -5.564      -1.622     209.038
 Approx polarizability:     524.694      46.279     491.774     -14.694     -10.303     361.782

 ******    1 imaginary frequencies (negative Signs) ******

                      1                      2                      3
                      A                      A                      A
 Frequencies --    -26.7778                14.9119                26.5410
 Red. masses --      2.3469                13.4812                11.6131
 Frc consts  --      0.0010                 0.0018                 0.0048
 IR Inten    --     21.5207                 0.0158                 0.6316
 Raman Activ --      0.6078                 0.7569                 0.1664

                      4                      5                      6
                      A                      A                      A
 Frequencies --     31.6640                40.0199                44.0277
 Red. masses --      4.8426                 9.0888                13.3092
 Frc consts  --      0.0029                 0.0086                 0.0152
 IR Inten    --      3.2337                 2.3953                 0.5795
 Raman Activ --      0.7086                 0.7417                 0.6561

                      7                      8                      9
                      A                      A                      A
 Frequencies --     63.7266                71.4920                79.3210
 Red. masses --      4.2710                10.4683                 5.5722
 Frc consts  --      0.0102                 0.0315                 0.0207
 IR Inten    --      7.2270                 0.5993                 1.2813
 Raman Activ --      0.9786                 0.1883                 1.0771

                     10                     11                     12
                      A                      A                      A
 Frequencies --     83.9922                89.9789                92.0007
 Red. masses --      5.8770                 9.7125                 5.9608
 Frc consts  --      0.0244                 0.0463                 0.0297
 IR Inten    --      3.2532                 0.9002                 3.0837
 Raman Activ --      1.1217                 0.8955                 3.1452

                     13                     14                     15
                      A                      A                      A
 Frequencies --     94.8745                98.0447               108.0874
 Red. masses --      5.4748                 5.0264                 5.4594
 Frc consts  --      0.0290                 0.0285                 0.0376
 IR Inten    --      1.2866                 3.5872                 0.8579
 Raman Activ --      0.5912                 1.7592                 0.2399

                     16                     17                     18
                      A                      A                      A
 Frequencies --    112.3889               119.2649               123.7474
 Red. masses --      5.2635                 4.3934                 3.9054
 Frc consts  --      0.0392                 0.0368                 0.0352
 IR Inten    --      2.9728                 1.0341                12.9359
 Raman Activ --      2.7558                12.6469                 1.4655

                     19                     20                     21
                      A                      A                      A
 Frequencies --    133.4136               136.2683               138.1271
 Red. masses --      5.9701                12.9209                 5.7069
 Frc consts  --      0.0626                 0.1414                 0.0642
 IR Inten    --      8.4881                 0.4873                 8.4159
 Raman Activ --      0.4447                 1.6735                 1.0618

                     22                     23                     24
                      A                      A                      A
 Frequencies --    145.1045               151.2497               156.6607
 Red. masses --      4.2874                 5.7654                 6.1905
 Frc consts  --      0.0532                 0.0777                 0.0895
 IR Inten    --      2.4518                 3.9441                 6.0037
 Raman Activ --      0.4496                 0.6155                 0.6103

                     25                     26                     27
                      A                      A                      A
 Frequencies --    164.7370               172.3297               178.8967
 Red. masses --      6.0525                 6.7421                 2.5122
 Frc consts  --      0.0968                 0.1180                 0.0474
 IR Inten    --      3.7538                 4.6753                20.7893
 Raman Activ --      0.3448                 0.5615                 0.8077

                     28                     29                     30
                      A                      A                      A
 Frequencies --    184.2150               193.6284               195.0462
 Red. masses --      9.4444                 7.3161                 5.5659
 Frc consts  --      0.1888                 0.1616                 0.1248
 IR Inten    --     12.1310                87.2726                 7.8673
 Raman Activ --      0.6231                 0.4486                 0.8703

                     31                     32                     33
                      A                      A                      A
 Frequencies --    198.6515               214.6170               225.7745
 Red. masses --      6.3942                 6.6019                 7.1753
 Frc consts  --      0.1487                 0.1792                 0.2155
 IR Inten    --      3.9577                 4.3199                 1.1250
 Raman Activ --      0.9673                 0.2754                 0.9321

                     34                     35                     36
                      A                      A                      A
 Frequencies --    233.9108               235.3450               244.4321
 Red. masses --      4.3375                 3.0897                 5.6540
 Frc consts  --      0.1398                 0.1008                 0.1990
 IR Inten    --      0.5820                 0.2931                 0.3263
 Raman Activ --      2.0337                 0.8640                 1.4847

                     37                     38                     39
                      A                      A                      A
 Frequencies --    253.2118               262.3371               266.5586
 Red. masses --      7.9440                 6.6157                 7.2363
 Frc consts  --      0.3001                 0.2683                 0.3029
 IR Inten    --      6.0803                 1.3029                27.7248
 Raman Activ --      3.8731                 4.0629                 3.7537

                     40                     41                     42
                      A                      A                      A
 Frequencies --    271.6751               278.3592               279.7276
 Red. masses --      7.4082                 5.4177                10.7776
 Frc consts  --      0.3222                 0.2473                 0.4969
 IR Inten    --      0.9157                 2.9845                10.5373
 Raman Activ --      1.8549                 4.0127                 2.5904

                     43                     44                     45
                      A                      A                      A
 Frequencies --    286.9823               290.7358               307.9265
 Red. masses --      5.8204                 4.0324                 6.3022
 Frc consts  --      0.2824                 0.2008                 0.3521
 IR Inten    --     17.5774                39.0053                27.1956
 Raman Activ --      2.2146                 3.9635                 0.9496

                     46                     47                     48
                      A                      A                      A
 Frequencies --    316.9981               322.4870               327.2027
 Red. masses --      5.1963                 8.1993                 9.2991
 Frc consts  --      0.3077                 0.5024                 0.5866
 IR Inten    --      0.5660                 1.4257                49.2703
 Raman Activ --      9.0767                41.1692                 4.3492

                     49                     50                     51
                      A                      A                      A
 Frequencies --    345.2721               358.8718               370.9975
 Red. masses --      8.9100                 9.5983                13.6341
 Frc consts  --      0.6258                 0.7283                 1.1057
 IR Inten    --      5.9961                 2.0251               140.6580
 Raman Activ --      1.5953                 4.6768                 7.1665

                     52                     53                     54
                      A                      A                      A
 Frequencies --    378.2692               403.6215               406.4853
 Red. masses --     11.0850                11.4826                11.8300
 Frc consts  --      0.9345                 1.1021                 1.1517
 IR Inten    --     19.2272               166.3860               210.8271
 Raman Activ --      3.9726                 1.0493                 1.6160

                     55                     56                     57
                      A                      A                      A
 Frequencies --    418.0571               532.3199               552.4410
 Red. masses --      8.8626                 1.5419                 3.3807
 Frc consts  --      0.9126                 0.2574                 0.6079
 IR Inten    --     79.2935               501.0716               314.5304
 Raman Activ --     10.9525                 7.8662                16.7074

                     58                     59                     60
                      A                      A                      A
 Frequencies --    577.3902               599.6706               607.3300
 Red. masses --      1.3502                 1.1528                 1.2016
 Frc consts  --      0.2652                 0.2443                 0.2611
 IR Inten    --    177.3177                57.8587                71.7549
 Raman Activ --      8.5304                 6.0245                 8.1217

                     61                     62                     63
                      A                      A                      A
 Frequencies --    638.6771               741.5405               743.5241
 Red. masses --     11.2788                11.3023                11.2647
 Frc consts  --      2.7107                 3.6617                 3.6691
 IR Inten    --    143.1291                 1.9548                25.8432
 Raman Activ --      1.8705                 0.9946                 3.2614

                     64                     65                     66
                      A                      A                      A
 Frequencies --    754.6905               755.1413               759.3395
 Red. masses --     11.2722                11.4579                11.1459
 Frc consts  --      3.7826                 3.8496                 3.7865
 IR Inten    --     29.0993                14.2315                 7.7626
 Raman Activ --      0.6603                 2.1918                 1.0089

                     67                     68                     69
                      A                      A                      A
 Frequencies --    765.8428               902.3755              1047.6856
 Red. masses --     10.9908                19.0399                 1.6957
 Frc consts  --      3.7980                 9.1346                 1.0967
 IR Inten    --     25.5002                70.3497                 0.1234
 Raman Activ --      0.8319               132.9138                 1.2122

                     70                     71                     72
                      A                      A                      A
 Frequencies --   1048.8689              1050.8020              1051.9614
 Red. masses --      1.6961                 1.7016                 1.7035
 Frc consts  --      1.0994                 1.1070                 1.1107
 IR Inten    --      0.0180                 0.1773                 0.1315
 Raman Activ --      1.1446                 2.5039                 3.4231

                     73                     74                     75
                      A                      A                      A
 Frequencies --   1055.4120              1057.2752              1371.7908
 Red. masses --      1.6976                 1.6943                 3.9053
 Frc consts  --      1.1141                 1.1159                 4.3299
 IR Inten    --      0.0306                 0.0098                70.0140
 Raman Activ --      0.1125                 4.7017                 4.3358

                     76                     77                     78
                      A                      A                      A
 Frequencies --   1375.9961              1380.7833              1383.9665
 Red. masses --      3.2880                 2.8365                 2.1864
 Frc consts  --      3.6679                 3.1863                 2.4673
 IR Inten    --    122.1605               104.8396               249.9384
 Raman Activ --      2.4894                 1.8107                 9.2134

                     79                     80                     81
                      A                      A                      A
 Frequencies --   1393.8591              1396.3240              1396.9420
 Red. masses --      1.1087                 1.2053                 1.2785
 Frc consts  --      1.2691                 1.3846                 1.4699
 IR Inten    --      7.4903                 1.5036                20.3754
 Raman Activ --      5.9585                 3.2129                 4.4717

                     82                     83                     84
                      A                      A                      A
 Frequencies --   1397.9466              1400.0362              1402.9703
 Red. masses --      1.4025                 1.6812                 1.7186
 Frc consts  --      1.6149                 1.9415                 1.9931
 IR Inten    --     41.7863                81.2839               102.5028
 Raman Activ --      2.2715                 1.6629                 1.7267

                     85                     86                     87
                      A                      A                      A
 Frequencies --   1403.7327              1410.1551              1588.6584
 Red. masses --      8.1463                 6.4989                11.0967
 Frc consts  --      9.4576                 7.6142                16.5008
 IR Inten    --    200.9681                47.5085                 0.5505
 Raman Activ --      1.9095                 3.4095                 2.2430

                     88                     89                     90
                      A                      A                      A
 Frequencies --   1609.3279              1613.1417              1621.0625
 Red. masses --     11.3018                10.0577                10.9720
 Frc consts  --     17.2460                15.4203                16.9878
 IR Inten    --     13.5452                16.3356                45.4554
 Raman Activ --     12.5773                 3.3534                 9.4251

                     91                     92                     93
                      A                      A                      A
 Frequencies --   1647.9993              1655.3003              1695.8845
 Red. masses --      1.0863                 1.1073                10.9707
 Frc consts  --      1.7382                 1.7876                18.5898
 IR Inten    --     75.7044                86.7018              1223.0822
 Raman Activ --      1.8460                 1.5963                 7.3882

                     94                     95                     96
                      A                      A                      A
 Frequencies --   1703.5333              2425.9311              2960.5989
 Red. masses --     10.9999                14.0030                 1.0836
 Frc consts  --     18.8079                48.5544                 5.5960
 IR Inten    --   1203.8141                 0.3381                95.4007
 Raman Activ --      7.3549                19.1869               326.8776

                     97                     98                     99
                      A                      A                      A
 Frequencies --   2962.2775              2967.6179              2971.1512
 Red. masses --      1.0835                 1.0836                 1.0841
 Frc consts  --      5.6018                 5.6225                 5.6388
 IR Inten    --    128.0081                77.1855               104.2880
 Raman Activ --    390.8938               360.4127               390.9930

                    100                    101                    102
                      A                      A                      A
 Frequencies --   2975.5511              2978.4233              3719.6577
 Red. masses --      1.0837                 1.0839                 1.0461
 Frc consts  --      5.6534                 5.6651                 8.5281
 IR Inten    --    107.5962                64.7528                29.4996
 Raman Activ --    397.6462               511.8062                99.8164

                    103                    104                    105
                      A                      A                      A
 Frequencies --   3726.8974              3824.5042              3831.3839
 Red. masses --      1.0446                 1.0798                 1.0817
 Frc consts  --      8.5483                 9.3057                 9.3559
 IR Inten    --     31.2568                85.3642                81.4515
 Raman Activ --    102.9760                 9.9175                 9.6137

 - Thermochemistry -
 -------------------
 Temperature   298.150 Kelvin.  Pressure   1.00000 Atm.
 Thermochemistry will use frequencies scaled by 0.9670.

 Molecular mass:   533.80785 amu.
 Principal axes and moments of inertia in atomic units:
                           1         2         3
     Eigenvalues --  8365.43763********************
           X            0.99692   0.05248   0.05836
           Y           -0.05263   0.99861   0.00118
           Z           -0.05822  -0.00424   0.99830
 This molecule is an asymmetric top.
 Rotational symmetry number  1.
 Warning -- assumption of classical behavior for rotation
           may cause significant error
 Rotational temperatures (Kelvin)      0.01035     0.00768     0.00593
 Rotational constants (GHZ):           0.21574     0.16000     0.12350
    1 imaginary frequencies ignored.
 Zero-point vibrational energy     527368.3 (Joules/Mol)
                                  126.04404 (Kcal/Mol)
 Warning -- explicit consideration of  60 degrees of freedom as
           vibrations may cause significant error
 Vibrational temperatures:     20.75    36.93    44.05    55.68    61.26
          (Kelvin)             88.66    99.47   110.36   116.86   125.19
                              128.00   132.00   136.41   150.38   156.37
                              165.93   172.17   185.62   189.59   192.18
                              201.88   210.43   217.96   229.20   239.76
                              248.90   256.30   269.39   271.37   276.38
                              298.60   314.12   325.44   327.43   340.08
                              352.29   364.99   370.86   377.98   387.28
                              389.18   399.28   404.50   428.42   441.04
                              448.68   455.24   480.38   499.30   516.17
                              526.28   561.56   565.54   581.64   740.62
                              768.61   803.32   834.32   844.98   888.59
                             1031.70  1034.46  1050.00  1050.63  1056.47
                             1065.51  1255.47  1457.64  1459.29  1461.98
                             1463.59  1468.39  1470.98  1908.57  1914.42
                             1921.08  1925.51  1939.27  1942.70  1943.56
                             1944.96  1947.87  1951.95  1953.01  1961.95
                             2210.30  2239.05  2244.36  2255.38  2292.86
                             2303.01  2359.48  2370.12  3375.19  4119.07
                             4121.41  4128.84  4133.75  4139.88  4143.87
                             5175.15  5185.22  5321.02  5330.59

 Zero-point correction=                           0.200864 (Hartree/Particle)
 Thermal correction to Energy=                    0.237733
 Thermal correction to Enthalpy=                  0.238678
 Thermal correction to Gibbs Free Energy=         0.127354
 Sum of electronic and zero-point Energies=          -5339.558986
 Sum of electronic and thermal Energies=             -5339.522117
 Sum of electronic and thermal Enthalpies=           -5339.521172
 Sum of electronic and thermal Free Energies=        -5339.632496

                     E (Thermal)             CV                S
                      KCal/Mol        Cal/Mol-Kelvin    Cal/Mol-Kelvin
 Total                  149.180            120.139            234.300
 Electronic               0.000              0.000              5.381
 Translational            0.889              2.981             44.710
 Rotational               0.889              2.981             35.576
 Vibrational            147.403            114.177            148.632
 Vibration     1          0.593              1.986              7.284
 Vibration     2          0.593              1.985              6.139
 Vibration     3          0.594              1.984              5.789
 Vibration     4          0.594              1.981              5.325
 Vibration     5          0.595              1.980              5.136
 Vibration     6          0.597              1.973              4.405
 Vibration     7          0.598              1.969              4.178
 Vibration     8          0.599              1.965              3.974
 Vibration     9          0.600              1.962              3.861
 Vibration    10          0.601              1.958              3.726
 Vibration    11          0.602              1.957              3.683
 Vibration    12          0.602              1.955              3.623
 Vibration    13          0.603              1.953              3.558
 Vibration    14          0.605              1.946              3.368
 Vibration    15          0.606              1.942              3.292
 Vibration    16          0.608              1.937              3.177
 Vibration    17          0.609              1.933              3.106
 Vibration    18          0.611              1.924              2.961
 Vibration    19          0.612              1.922              2.920
 Vibration    20          0.613              1.920              2.894
 Vibration    21          0.615              1.913              2.800
 Vibration    22          0.617              1.907              2.720
 Vibration    23          0.619              1.901              2.653
 Vibration    24          0.621              1.892              2.558
 Vibration    25          0.624              1.883              2.473
 Vibration    26          0.627              1.876              2.403
 Vibration    27          0.629              1.869              2.348
 Vibration    28          0.632              1.857              2.255
 Vibration    29          0.633              1.856              2.241
 Vibration    30          0.634              1.851              2.208
 Vibration    31          0.641              1.829              2.065
 Vibration    32          0.646              1.813              1.973
 Vibration    33          0.650              1.801              1.909
 Vibration    34          0.651              1.799              1.898
 Vibration    35          0.655              1.785              1.830
 Vibration    36          0.660              1.771              1.767
 Vibration    37          0.665              1.757              1.705
 Vibration    38          0.667              1.750              1.677
 Vibration    39          0.670              1.741              1.644
 Vibration    40          0.674              1.730              1.602
 Vibration    41          0.674              1.728              1.593
 Vibration    42          0.678              1.715              1.549
 Vibration    43          0.681              1.709              1.527
 Vibration    44          0.691              1.678              1.429
 Vibration    45          0.697              1.661              1.381
 Vibration    46          0.700              1.651              1.353
 Vibration    47          0.703              1.642              1.329
 Vibration    48          0.715              1.608              1.241
 Vibration    49          0.725              1.581              1.180
 Vibration    50          0.734              1.557              1.127
 Vibration    51          0.739              1.543              1.097
 Vibration    52          0.758              1.491              0.999
 Vibration    53          0.760              1.485              0.988
 Vibration    54          0.769              1.461              0.947
 Vibration    55          0.870              1.217              0.622
 Vibration    56          0.889              1.174              0.578
 Vibration    57          0.914              1.121              0.527
 Vibration    58          0.937              1.075              0.486
 Vibration    59          0.944              1.059              0.472
 Vibration    60          0.977              0.995              0.420

 Normal termination of Gaussian 16 at Sun Feb  5 12:59:16 2023.
