 Gaussian 16, Revision C.02,
 Gaussian 16:  ES64L-G16RevC.02  7-Dec-2021

 ----------------------------------------------------------------------
 #p opt=(cartesian,maxcycle=500) gen um06l int=grid=ultrafine scf=(xqc,
 intrep,maxconventionalcycle=150) pop=(hirshfeld) nosymm
 ----------------------------------------------------------------------

 --------------
 FeFeFe-B-2xH2O
 --------------
 Symbolic Z-matrix:
 Charge =  0 Multiplicity =15

 SCF Done:  E(UM06L) =  -5339.75984076     A.U. after   30 cycles
 SCF Done:  E(UM06L) =  -5339.75879569     A.U. after   17 cycles
 SCF Done:  E(UM06L) =  -5339.75981645     A.U. after   12 cycles
 SCF Done:  E(UM06L) =  -5339.75984085     A.U. after    5 cycles
 SCF Done:  E(UM06L) =  -5339.75983436     A.U. after   12 cycles
 SCF Done:  E(UM06L) =  -5339.75984009     A.U. after   11 cycles
 SCF Done:  E(UM06L) =  -5339.75984088     A.U. after    5 cycles
 SCF Done:  E(UM06L) =  -5339.75984145     A.U. after   10 cycles
 SCF Done:  E(UM06L) =  -5339.75984256     A.U. after    9 cycles
 SCF Done:  E(UM06L) =  -5339.75984080     A.U. after   11 cycles
 SCF Done:  E(UM06L) =  -5339.75984920     A.U. after    9 cycles
 SCF Done:  E(UM06L) =  -5339.75984932     A.U. after    9 cycles
 SCF Done:  E(UM06L) =  -5339.75984780     A.U. after   11 cycles
 SCF Done:  E(UM06L) =  -5339.75984953     A.U. after   11 cycles
 SCF Done:  E(UM06L) =  -5339.75984893     A.U. after   10 cycles
 SCF Done:  E(UM06L) =  -5339.75984975     A.U. after   10 cycles
 SCF Done:  E(UM06L) =  -5339.75984986     A.U. after    9 cycles
 SCF Done:  E(UM06L) =  -5339.75984995     A.U. after    9 cycles
 SCF Done:  E(UM06L) =  -5339.75985002     A.U. after    9 cycles
 SCF Done:  E(UM06L) =  -5339.75985009     A.U. after    8 cycles
 Optimization completed.
    -- Stationary point found.

                          Input orientation:
 ---------------------------------------------------------------------
 Center     Atomic      Atomic             Coordinates (Angstroms)
 Number     Number       Type             X           Y           Z
 ---------------------------------------------------------------------
      1          8           0        1.654104   -2.108060   -1.587075
      2          8           0       -0.526169   -2.513544   -1.174096
      3          6           0        0.537150   -2.671063   -1.786764
      4          1           0        0.527499   -3.401721   -2.615711
      5          8           0        1.866797    2.236070    1.180184
      6          8           0        2.946151    0.272945    1.382121
      7          6           0        2.738628    1.475550    1.659291
      8          1           0        3.410980    1.918495    2.414972
      9          8           0       -2.106049   -0.130305   -1.490690
     10          8           0        2.809527    0.486539   -1.438213
     11          8           0        1.382451    2.213978   -1.624194
     12          6           0        2.384885    1.541889   -1.958105
     13          1           0        2.965823    1.931570   -2.813410
     14          8           0       -0.584441   -2.098590    1.776050
     15          8           0        1.609912   -2.281859    1.281187
     16          6           0        0.576307   -2.489457    1.976702
     17          1           0        0.733871   -3.106474    2.878451
     18         26           0       -1.396192   -1.141067    0.150473
     19          8           0       -2.203912    0.274962    1.466602
     20         26           0        0.148470    1.859447    0.029179
     21          8           0       -0.904179    2.103791    1.700791
     22          8           0       -1.425527    1.996524   -1.166060
     23         26           0        1.981819   -0.843969   -0.028618
     24          8           0        0.287423   -0.023408    0.040073
     25          6           0       -1.845344    1.324054    2.022954
     26          1           0       -2.420176    1.633154    2.913996
     27          6           0       -2.066457    1.081653   -1.755758
     28          1           0       -2.672760    1.412663   -2.616461
     29          7           0       -5.515820   -0.072341    0.495911
     30          7           0       -4.965039    0.637726   -0.129774
     31          8           0       -2.744409   -2.031597    0.238135
     32          8           0        0.240212    4.067771   -0.006181
     33          1           0        0.710570    4.243420   -0.831888
     34          1           0        0.879619    4.249023    0.695781
     35          8           0        3.996325   -1.719637   -0.363906
     36          1           0        4.470077   -0.986614   -0.778107
     37          1           0        3.775744   -2.312159   -1.097030
 ---------------------------------------------------------------------

 Alpha  occ. eigenvalues -- -255.65156-255.65109-255.62345 -30.10217 -30.10174
 Alpha  occ. eigenvalues --  -30.06357 -25.87318 -25.87290 -25.87228 -25.87169
 Alpha  occ. eigenvalues --  -25.87142 -25.87101 -25.83859 -25.83817 -25.83433
 Alpha  occ. eigenvalues --  -19.02607 -19.02308 -18.99091 -18.99044 -18.99018
 Alpha  occ. eigenvalues --  -18.99004 -18.98450 -18.98395 -18.98328 -18.98143
 Alpha  occ. eigenvalues --  -18.97919 -18.97809 -18.97333 -18.97186 -18.96927
 Alpha  occ. eigenvalues --  -18.96521 -14.24184 -14.24041 -10.19051 -10.18920
 Alpha  occ. eigenvalues --  -10.17836 -10.17742 -10.17650 -10.17426  -3.67048
 Alpha  occ. eigenvalues --   -3.67009  -3.60207  -2.41181  -2.41174  -2.40981
 Alpha  occ. eigenvalues --   -2.40921  -2.40850  -2.40798  -2.35302  -2.35137
 Alpha  occ. eigenvalues --   -2.32851  -1.07890  -1.07379  -1.06726  -1.06568
 Alpha  occ. eigenvalues --   -1.06237  -1.06093  -1.05109  -1.04765  -1.04466
 Alpha  occ. eigenvalues --   -0.99942  -0.99627  -0.99008  -0.98816  -0.98529
 Alpha  occ. eigenvalues --   -0.98382  -0.93494  -0.88636  -0.60148  -0.59235
 Alpha  occ. eigenvalues --   -0.58668  -0.58364  -0.58095  -0.57907  -0.54960
 Alpha  occ. eigenvalues --   -0.54581  -0.50170  -0.49829  -0.49635  -0.49096
 Alpha  occ. eigenvalues --   -0.48797  -0.48558  -0.47997  -0.47778  -0.47621
 Alpha  occ. eigenvalues --   -0.47442  -0.46716  -0.46486  -0.46218  -0.46037
 Alpha  occ. eigenvalues --   -0.45041  -0.44111  -0.43455  -0.42866  -0.42703
 Alpha  occ. eigenvalues --   -0.41826  -0.41489  -0.41079  -0.40968  -0.40837
 Alpha  occ. eigenvalues --   -0.40761  -0.40112  -0.39758  -0.39554  -0.39290
 Alpha  occ. eigenvalues --   -0.38899  -0.38676  -0.38403  -0.37622  -0.37585
 Alpha  occ. eigenvalues --   -0.37512  -0.37218  -0.35772  -0.35280  -0.35085
 Alpha  occ. eigenvalues --   -0.34081  -0.33200  -0.32535  -0.32440  -0.30907
 Alpha  occ. eigenvalues --   -0.30409  -0.30126  -0.29647  -0.29540  -0.29232
 Alpha  occ. eigenvalues --   -0.28902  -0.28698  -0.28553  -0.28384  -0.28020
 Alpha  occ. eigenvalues --   -0.27743  -0.27213  -0.25734  -0.25499  -0.25114
 Alpha  occ. eigenvalues --   -0.23771  -0.23389  -0.22869  -0.22789  -0.22404
 Alpha virt. eigenvalues --   -0.14457  -0.04560  -0.03812  -0.02989  -0.02988
 Alpha virt. eigenvalues --   -0.02924  -0.02657  -0.02543  -0.02130   0.01092
 Alpha virt. eigenvalues --    0.02001   0.06252   0.07118   0.07295   0.07862

  Beta  occ. eigenvalues -- -255.64982-255.64935-255.62230 -29.98479 -29.98435
  Beta  occ. eigenvalues --  -29.97200 -25.78687 -25.78652 -25.78641 -25.78598
  Beta  occ. eigenvalues --  -25.78590 -25.78552 -25.77945 -25.76633 -25.76467
  Beta  occ. eigenvalues --  -19.02439 -19.02144 -18.98823 -18.98787 -18.98750
  Beta  occ. eigenvalues --  -18.98695 -18.98044 -18.97993 -18.97976 -18.97742
  Beta  occ. eigenvalues --  -18.97709 -18.97600 -18.97120 -18.96961 -18.95444
  Beta  occ. eigenvalues --  -18.94882 -14.24183 -14.24040 -10.19055 -10.18922
  Beta  occ. eigenvalues --  -10.17837 -10.17742 -10.17654 -10.17428  -3.41943
  Beta  occ. eigenvalues --   -3.41901  -3.41665  -2.18397  -2.16371  -2.16337
  Beta  occ. eigenvalues --   -2.16323  -2.16302  -2.16297  -2.16251  -2.14980
  Beta  occ. eigenvalues --   -2.14650  -1.07346  -1.06817  -1.06098  -1.05926
  Beta  occ. eigenvalues --   -1.05637  -1.05431  -1.05105  -1.04421  -1.04129
  Beta  occ. eigenvalues --   -0.99291  -0.98954  -0.98238  -0.98049  -0.97821
  Beta  occ. eigenvalues --   -0.97599  -0.89417  -0.84262  -0.59497  -0.58542
  Beta  occ. eigenvalues --   -0.58084  -0.57727  -0.57325  -0.57084  -0.54673
  Beta  occ. eigenvalues --   -0.54290  -0.49821  -0.49116  -0.48413  -0.47753
  Beta  occ. eigenvalues --   -0.47537  -0.46994  -0.46604  -0.46458  -0.46178
  Beta  occ. eigenvalues --   -0.46100  -0.46039  -0.45538  -0.45386  -0.43580
  Beta  occ. eigenvalues --   -0.42161  -0.41989  -0.41842  -0.41552  -0.41410
  Beta  occ. eigenvalues --   -0.40987  -0.40725  -0.40608  -0.40077  -0.36804
  Beta  occ. eigenvalues --   -0.36776  -0.35772  -0.34522  -0.34080  -0.32133
  Beta  occ. eigenvalues --   -0.31917  -0.31362  -0.30990  -0.30848  -0.30386
  Beta  occ. eigenvalues --   -0.30145  -0.29926  -0.29567  -0.29402  -0.28938
  Beta  occ. eigenvalues --   -0.28633  -0.28413  -0.28019  -0.27805  -0.27775
  Beta  occ. eigenvalues --   -0.27691  -0.27576  -0.26841  -0.25519  -0.25012
  Beta  occ. eigenvalues --   -0.24596
  Beta virt. eigenvalues --   -0.17780  -0.17700  -0.16969  -0.16721  -0.16533
  Beta virt. eigenvalues --   -0.14867  -0.14811  -0.11921  -0.11852  -0.11362
  Beta virt. eigenvalues --   -0.11125  -0.11005  -0.10226  -0.08915  -0.06064

 Mulliken charges and spin densities:
               1          2
     1  O   -0.610611   0.097119
     2  O   -0.513230   0.052678
     3  C    0.695237   0.003110
     4  H    0.042370   0.018365
     5  O   -0.599179   0.068713
     6  O   -0.547687   0.080802
     7  C    0.696761   0.002105
     8  H    0.045213   0.018615
     9  O   -0.496285   0.056671
    10  O   -0.596589   0.064127
    11  O   -0.591995   0.069237
    12  C    0.707575   0.000525
    13  H    0.040429   0.017910
    14  O   -0.490165   0.055223
    15  O   -0.563954   0.110547
    16  C    0.685099   0.000897
    17  H    0.051793   0.017089
    18  Fe   1.002606   3.206386
    19  O   -0.529238   0.058402
    20  Fe   1.004756   4.274688
    21  O   -0.557447   0.112609
    22  O   -0.566338   0.110733
    23  Fe   1.002280   4.274474
    24  O   -0.743108   0.494068
    25  C    0.690910   0.002916
    26  H    0.047072   0.018590
    27  C    0.698852  -0.001567
    28  H    0.050743   0.017165
    29  N   -0.013163  -0.001283
    30  N    0.007087   0.002743
    31  O   -0.440143   0.616990
    32  O   -0.547563   0.039990
    33  H    0.370950  -0.000148
    34  H    0.373126   0.000065
    35  O   -0.538214   0.039512
    36  H    0.365236   0.000236
    37  H    0.366812  -0.000300
 Sum of Mulliken charges =  -0.00000  14.00000

 Dipole moment (field-independent basis, Debye):
    X=              7.0165    Y=              4.1909    Z=             -1.8111  Tot=              8.3711
 Quadrupole moment (field-independent basis, Debye-Ang):
   XX=           -172.4713   YY=           -163.9567   ZZ=           -164.2113
   XY=             -2.6456   XZ=             -5.0621   YZ=              2.8235

 Normal termination of Gaussian 16 at Sat Feb  4 19:06:02 2023.
