 Gaussian 16, Revision C.02,
 Gaussian 16:  ES64L-G16RevC.02  7-Dec-2021

 ----------------------------------------------------------------------
 #p freq=raman scale=0.967 guess=read geom=allcheck gen um06l int=grid=
 ultrafine scf=(xqc,intrep,maxconventionalcycle=150) pop=(hirshfeld) no
 symm
 ----------------------------------------------------------------------

 Structure from the checkpoint file:  "/scratch1/svicchi/G09-83844.pbs02/02-freq/FeFeFe-A-2xH2O-freq.chk"
 --------------
 FeFeFe-A-2xH2O
 --------------
 Charge =  0 Multiplicity =15

                          Input orientation:
 ---------------------------------------------------------------------
 Center     Atomic      Atomic             Coordinates (Angstroms)
 Number     Number       Type             X           Y           Z
 ---------------------------------------------------------------------
      1          8           0        1.438376   -2.153135   -1.714415
      2          8           0       -0.787910   -2.248215   -1.379003
      3          6           0        0.283239   -2.579499   -1.940826
      4          1           0        0.193458   -3.339440   -2.736042
      5          8           0        1.967738    2.210024    1.386148
      6          8           0        3.200333    0.359363    1.026705
      7          6           0        2.951777    1.461566    1.572682
      8          1           0        3.693582    1.815721    2.310605
      9          8           0       -2.269227    0.138284   -1.172925
     10          8           0        2.780687    0.454344   -1.825857
     11          8           0        1.651777    2.372109   -1.474095
     12          6           0        2.472677    1.639545   -2.078080
     13          1           0        2.987971    2.098103   -2.940943
     14          8           0       -0.446029   -2.303451    1.424282
     15          8           0        1.786995   -2.256238    1.130629
     16          6           0        0.727521   -2.672470    1.656397
     17          1           0        0.839572   -3.460379    2.422306
     18         26           0       -1.069467   -0.895496    0.099433
     19          8           0       -1.988686    0.046986    1.635664
     20         26           0        0.371825    2.019492    0.145631
     21          8           0       -0.940384    2.040546    1.701308
     22          8           0       -1.303196    2.172945   -1.140902
     23         26           0        2.145922   -0.804606   -0.363559
     24          8           0        0.490938    0.113585   -0.043131
     25          6           0       -1.771980    1.192802    2.097383
     26          1           0       -2.390618    1.486751    2.962741
     27          6           0       -2.169600    1.341850   -1.502543
     28          1           0       -2.940358    1.712927   -2.201286
     29          8           0        0.173968    4.178308   -0.119801
     30          1           0        0.852175    4.304909   -0.799400
     31          1           0       -0.661858    4.183558   -0.609761
     32          8           0        4.064964   -1.839901   -0.254394
     33          1           0        4.523353   -1.216379    0.328429
     34          1           0        3.805872   -2.568391    0.329101
 ---------------------------------------------------------------------

 SCF Done:  E(UM06L) =  -5155.01946670     A.U. after    4 cycles

 Alpha  occ. eigenvalues -- -255.61385-255.61166-255.61161 -30.05971 -30.05626
 Alpha  occ. eigenvalues --  -30.05617 -25.83635 -25.83310 -25.83308 -25.82836
 Alpha  occ. eigenvalues --  -25.82730 -25.82558 -25.82529 -25.82295 -25.82289
 Alpha  occ. eigenvalues --  -19.01897 -19.01888 -18.97425 -18.97406 -18.97399
 Alpha  occ. eigenvalues --  -18.97393 -18.97388 -18.97386 -18.97383 -18.97368
 Alpha  occ. eigenvalues --  -18.97307 -18.97296 -18.97261 -18.97243 -18.95315
 Alpha  occ. eigenvalues --  -10.17218 -10.17202 -10.17181 -10.17162 -10.17063
 Alpha  occ. eigenvalues --  -10.17053  -3.62866  -3.62622  -3.62614  -2.38075
 Alpha  occ. eigenvalues --   -2.37898  -2.37882  -2.36436  -2.36314  -2.36265
 Alpha  occ. eigenvalues --   -2.36189  -2.35780  -2.35760  -1.06167  -1.05903
 Alpha  occ. eigenvalues --   -1.05892  -1.05622  -1.05556  -1.05530  -1.04054
 Alpha  occ. eigenvalues --   -1.04026  -0.98305  -0.98266  -0.97994  -0.97903
 Alpha  occ. eigenvalues --   -0.97868  -0.97783  -0.92781  -0.58866  -0.57965
 Alpha  occ. eigenvalues --   -0.57743  -0.57517  -0.57361  -0.57289  -0.54078
 Alpha  occ. eigenvalues --   -0.54035  -0.48713  -0.48638  -0.47769  -0.47262
 Alpha  occ. eigenvalues --   -0.47233  -0.47045  -0.46885  -0.46814  -0.46426
 Alpha  occ. eigenvalues --   -0.46109  -0.45815  -0.45708  -0.44189  -0.43715
 Alpha  occ. eigenvalues --   -0.43110  -0.42041  -0.41940  -0.41282  -0.41222
 Alpha  occ. eigenvalues --   -0.40250  -0.40025  -0.39875  -0.38327  -0.37636
 Alpha  occ. eigenvalues --   -0.36832  -0.36788  -0.36449  -0.36318  -0.36280
 Alpha  occ. eigenvalues --   -0.35711  -0.35501  -0.35451  -0.35180  -0.33864
 Alpha  occ. eigenvalues --   -0.33323  -0.33037  -0.32290  -0.31846  -0.31290
 Alpha  occ. eigenvalues --   -0.29070  -0.28729  -0.28493  -0.28450  -0.28207
 Alpha  occ. eigenvalues --   -0.28176  -0.28051  -0.27915  -0.27396  -0.27243
 Alpha  occ. eigenvalues --   -0.26985  -0.26918  -0.26480  -0.24727  -0.23884
 Alpha  occ. eigenvalues --   -0.22132  -0.21963  -0.21580  -0.21361
 Alpha virt. eigenvalues --   -0.03320  -0.02702  -0.02659  -0.02352  -0.01446
 Alpha virt. eigenvalues --   -0.01276   0.01982   0.02686   0.03743   0.07531
 Alpha virt. eigenvalues --    0.07834   0.08228   0.08280   0.08904   0.09270

  Beta  occ. eigenvalues -- -255.61208-255.61001-255.60997 -29.94775 -29.94362
  Beta  occ. eigenvalues --  -29.94356 -25.75187 -25.74738 -25.74689 -25.74685
  Beta  occ. eigenvalues --  -25.74683 -25.74423 -25.74410 -25.74329 -25.74328
  Beta  occ. eigenvalues --  -19.01739 -19.01731 -18.97135 -18.97129 -18.97116
  Beta  occ. eigenvalues --  -18.97110 -18.97082 -18.97082 -18.97082 -18.97058
  Beta  occ. eigenvalues --  -18.97054 -18.97045 -18.96956 -18.96938 -18.93634
  Beta  occ. eigenvalues --  -10.17240 -10.17225 -10.17211 -10.17193 -10.17087
  Beta  occ. eigenvalues --  -10.17077  -3.38876  -3.38274  -3.38269  -2.13879
  Beta  occ. eigenvalues --   -2.13083  -2.13077  -2.13062  -2.13039  -2.12680
  Beta  occ. eigenvalues --   -2.12663  -2.12579  -2.12573  -1.05616  -1.05353
  Beta  occ. eigenvalues --   -1.05350  -1.05062  -1.04986  -1.04958  -1.03722
  Beta  occ. eigenvalues --   -1.03695  -0.97617  -0.97574  -0.97321  -0.97207
  Beta  occ. eigenvalues --   -0.97154  -0.97071  -0.88233  -0.58241  -0.57516
  Beta  occ. eigenvalues --   -0.57261  -0.56884  -0.56780  -0.56598  -0.53806
  Beta  occ. eigenvalues --   -0.53743  -0.47690  -0.47581  -0.46575  -0.46271
  Beta  occ. eigenvalues --   -0.46011  -0.45917  -0.45686  -0.45642  -0.45223
  Beta  occ. eigenvalues --   -0.45162  -0.44889  -0.44849  -0.42230  -0.41420
  Beta  occ. eigenvalues --   -0.41383  -0.41054  -0.41018  -0.40406  -0.39627
  Beta  occ. eigenvalues --   -0.39460  -0.35529  -0.35308  -0.33855  -0.33487
  Beta  occ. eigenvalues --   -0.30796  -0.30716  -0.30597  -0.29790  -0.28860
  Beta  occ. eigenvalues --   -0.28620  -0.28577  -0.28403  -0.28306  -0.28126
  Beta  occ. eigenvalues --   -0.27984  -0.27499  -0.27358  -0.27141  -0.27059
  Beta  occ. eigenvalues --   -0.26450  -0.26346  -0.26282  -0.24880  -0.16782
  Beta virt. eigenvalues --   -0.15084  -0.14995  -0.14948  -0.14754  -0.14517
  Beta virt. eigenvalues --   -0.14140  -0.13615  -0.10934  -0.10801  -0.08553
  Beta virt. eigenvalues --   -0.07786  -0.07730  -0.07390  -0.06864  -0.02332

 Mulliken charges and spin densities:
               1          2
     1  O   -0.565622   0.076612
     2  O   -0.558692   0.079882
     3  C    0.687114  -0.016111
     4  H    0.041134   0.017793
     5  O   -0.563392   0.079058
     6  O   -0.626788   0.069080
     7  C    0.702088  -0.017305
     8  H    0.034314   0.018258
     9  O   -0.555554   0.074729
    10  O   -0.563306   0.079257
    11  O   -0.624547   0.069941
    12  C    0.701572  -0.017342
    13  H    0.034228   0.018288
    14  O   -0.556494   0.074693
    15  O   -0.623912   0.063279
    16  C    0.701613  -0.013720
    17  H    0.034948   0.017098
    18  Fe   1.010708   4.162375
    19  O   -0.559203   0.080545
    20  Fe   1.017576   4.157859
    21  O   -0.563966   0.076770
    22  O   -0.627053   0.062678
    23  Fe   1.016873   4.156813
    24  O   -0.818495   0.555684
    25  C    0.686469  -0.016434
    26  H    0.041133   0.017839
    27  C    0.702048  -0.013995
    28  H    0.034706   0.017050
    29  O   -0.562024   0.033883
    30  H    0.370675   0.000409
    31  H    0.371135   0.000292
    32  O   -0.561210   0.033989
    33  H    0.370814   0.000426
    34  H    0.371111   0.000326
 Sum of Mulliken charges =  -0.00000  14.00000

 Dipole moment (field-independent basis, Debye):
    X=              1.7974    Y=              1.1491    Z=             -0.1546  Tot=              2.1389
 Quadrupole moment (field-independent basis, Debye-Ang):
   XX=           -149.3040   YY=           -146.7570   ZZ=           -156.4689
   XY=             -5.8977   XZ=              6.6728   YZ=            -10.8091

  Exact polarizability:     245.799      -7.282     253.685      -7.390       4.230     188.614
 Approx polarizability:     975.756     -58.396    1043.774    -108.848      82.037     327.359

                      1                      2                      3
                      A                      A                      A
 Frequencies --     34.3349                40.9262                46.1745
 Red. masses --      8.6607                 9.3818                 9.3238
 Frc consts  --      0.0060                 0.0093                 0.0117
 IR Inten    --      0.6687                 0.1760                 0.5309
 Raman Activ --      0.1492                 0.6567                 0.3538

                      4                      5                      6
                      A                      A                      A
 Frequencies --     60.7235                84.1891                86.1766
 Red. masses --      4.9112                 6.9039                 7.0251
 Frc consts  --      0.0107                 0.0288                 0.0307
 IR Inten    --      6.3311                 4.1150                 0.1261
 Raman Activ --      1.2334                 1.2564                 0.7718

                      7                      8                      9
                      A                      A                      A
 Frequencies --     90.4981                95.8567                98.5494
 Red. masses --      7.5285                 7.2468                 7.6451
 Frc consts  --      0.0363                 0.0392                 0.0437
 IR Inten    --      2.3645                 4.2517                 0.5088
 Raman Activ --      0.5821                 1.4795                 2.8250

                     10                     11                     12
                      A                      A                      A
 Frequencies --    103.0587               115.0454               121.4960
 Red. masses --      6.7220                 6.4551                 4.7423
 Frc consts  --      0.0421                 0.0503                 0.0412
 IR Inten    --      0.0750                 2.4025                 0.5428
 Raman Activ --      2.0273                 2.1252                14.5068

                     13                     14                     15
                      A                      A                      A
 Frequencies --    127.2620               130.8019               137.6415
 Red. masses --      7.1991                 6.9538                 8.0792
 Frc consts  --      0.0687                 0.0701                 0.0902
 IR Inten    --      2.3675                 0.8946                 0.5011
 Raman Activ --      0.4718                 0.5309                 0.7896

                     16                     17                     18
                      A                      A                      A
 Frequencies --    142.2239               156.2545               159.2870
 Red. masses --      6.2222                 7.0916                 8.0278
 Frc consts  --      0.0742                 0.1020                 0.1200
 IR Inten    --      6.7359                 0.3649                 0.3219
 Raman Activ --      0.8515                 0.8749                 1.5937

                     19                     20                     21
                      A                      A                      A
 Frequencies --    166.7096               177.7102               182.2089
 Red. masses --      9.4706                 4.3756                 2.2709
 Frc consts  --      0.1551                 0.0814                 0.0444
 IR Inten    --      3.2513                12.2732                13.6851
 Raman Activ --      1.0533                 1.1331                 0.4015

                     22                     23                     24
                      A                      A                      A
 Frequencies --    186.3784               192.3891               196.7793
 Red. masses --      5.8900                 6.7331                 1.6044
 Frc consts  --      0.1205                 0.1468                 0.0366
 IR Inten    --      5.1536                59.1180                39.8199
 Raman Activ --      0.2740                 0.9498                 0.6283

                     25                     26                     27
                      A                      A                      A
 Frequencies --    208.7216               216.0022               220.1746
 Red. masses --     13.0623                 4.4033                 2.7202
 Frc consts  --      0.3353                 0.1210                 0.0777
 IR Inten    --     15.1373                 2.8035                11.1332
 Raman Activ --      0.1752                 0.6889                 0.9605

                     28                     29                     30
                      A                      A                      A
 Frequencies --    241.2095               250.6106               251.6966
 Red. masses --      6.9873                 3.0561                 3.0085
 Frc consts  --      0.2395                 0.1131                 0.1123
 IR Inten    --      1.6944                 0.6023                 0.6736
 Raman Activ --      0.7475                 0.7404                 0.8162

                     31                     32                     33
                      A                      A                      A
 Frequencies --    264.0366               268.4334               271.9199
 Red. masses --      8.1610                 9.2803                 8.6927
 Frc consts  --      0.3352                 0.3940                 0.3787
 IR Inten    --      0.3052                 7.0509                 3.3305
 Raman Activ --      1.6008                 0.2883                 0.9594

                     34                     35                     36
                      A                      A                      A
 Frequencies --    288.4805               291.1372               304.5486
 Red. masses --      8.6203                 5.2682                 4.1734
 Frc consts  --      0.4227                 0.2631                 0.2281
 IR Inten    --      0.3424                 0.1149                12.9171
 Raman Activ --      1.6789                15.5035                 0.4019

                     37                     38                     39
                      A                      A                      A
 Frequencies --    308.0637               311.4367               322.0430
 Red. masses --      3.2276                 3.2572                 4.8509
 Frc consts  --      0.1805                 0.1861                 0.2964
 IR Inten    --     20.6833                19.7679                 2.3999
 Raman Activ --      3.3580                 4.4991                19.3287

                     40                     41                     42
                      A                      A                      A
 Frequencies --    339.0641               348.5369               353.4749
 Red. masses --      8.7348                 9.0565                10.4650
 Frc consts  --      0.5917                 0.6482                 0.7704
 IR Inten    --    101.4242                 7.7926                11.9439
 Raman Activ --      0.1486                 3.1672                 7.7871

                     43                     44                     45
                      A                      A                      A
 Frequencies --    354.3167               355.4709               362.6972
 Red. masses --      9.6110                10.8325                12.5850
 Frc consts  --      0.7109                 0.8065                 0.9754
 IR Inten    --     13.9213                69.5781               168.3764
 Raman Activ --      2.7811                 3.9920                10.8474

                     46                     47                     48
                      A                      A                      A
 Frequencies --    376.5240               390.7107               397.7618
 Red. masses --     16.3054                12.4095                14.3056
 Frc consts  --      1.3620                 1.1161                 1.3335
 IR Inten    --      0.8492               214.1104               111.1908
 Raman Activ --      5.0624                 5.0680                 9.1630

                     49                     50                     51
                      A                      A                      A
 Frequencies --    580.6439               606.0531               610.6687
 Red. masses --     15.7361                 1.1999                15.0950
 Frc consts  --      3.1258                 0.2597                 3.3166
 IR Inten    --     51.2136               392.2777                39.3661
 Raman Activ --     13.1604                 3.6596                 2.7969

                     52                     53                     54
                      A                      A                      A
 Frequencies --    635.3865               654.4280               670.4209
 Red. masses --      1.1482                 1.1558                 1.1161
 Frc consts  --      0.2731                 0.2916                 0.2956
 IR Inten    --    125.4305               432.5971                82.8937
 Raman Activ --      1.8313                 3.3154                 1.5189

                     55                     56                     57
                      A                      A                      A
 Frequencies --    740.4924               743.6343               748.6773
 Red. masses --     11.2690                11.1680                10.8585
 Frc consts  --      3.6406                 3.6387                 3.5860
 IR Inten    --      2.6523                25.3770                43.7777
 Raman Activ --      3.4694                 5.0775                 1.5357

                     58                     59                     60
                      A                      A                      A
 Frequencies --    756.9509               758.7265               761.2660
 Red. masses --     10.8111                 9.9598                10.1325
 Frc consts  --      3.6497                 3.3781                 3.4597
 IR Inten    --     43.0952                23.1517                17.3164
 Raman Activ --      6.3474                 5.5466                 2.5387

                     61                     62                     63
                      A                      A                      A
 Frequencies --   1045.5730              1045.7342              1046.3247
 Red. masses --      1.6883                 1.6931                 1.6871
 Frc consts  --      1.0874                 1.0909                 1.0882
 IR Inten    --      0.0056                 0.0169                 0.0118
 Raman Activ --      0.9167                 0.7170                 0.4692

                     64                     65                     66
                      A                      A                      A
 Frequencies --   1047.2168              1049.0589              1049.2270
 Red. masses --      1.6942                 1.6926                 1.6951
 Frc consts  --      1.0947                 1.0975                 1.0994
 IR Inten    --      0.0210                 0.0613                 0.0073
 Raman Activ --      3.2022                 2.0928                 4.5478

                     67                     68                     69
                      A                      A                      A
 Frequencies --   1391.1977              1391.3114              1394.4298
 Red. masses --      5.6894                 7.1757                 3.3461
 Frc consts  --      6.4878                 8.1840                 3.8334
 IR Inten    --      5.1409                 4.4045               165.0679
 Raman Activ --     17.9011                10.1708                12.2938

                     70                     71                     72
                      A                      A                      A
 Frequencies --   1394.6868              1394.9676              1396.7519
 Red. masses --      3.4538                 6.2370                 1.2233
 Frc consts  --      3.9582                 7.1508                 1.4062
 IR Inten    --    171.1751               353.5374                30.4046
 Raman Activ --     16.6946                 7.1174                 6.1599

                     73                     74                     75
                      A                      A                      A
 Frequencies --   1397.4316              1398.8302              1400.2875
 Red. masses --      1.1538                 1.2351                 1.4275
 Frc consts  --      1.3275                 1.4239                 1.6492
 IR Inten    --      6.7986                28.3123                74.5237
 Raman Activ --      6.8324                19.4888                 2.4853

                     76                     77                     78
                      A                      A                      A
 Frequencies --   1401.9458              1402.9741              1405.2870
 Red. masses --      1.5961                 1.2101                 3.0598
 Frc consts  --      1.8483                 1.4034                 3.5602
 IR Inten    --     27.1561                43.2979                 2.0344
 Raman Activ --     17.2027                 8.3775                40.8605

                     79                     80                     81
                      A                      A                      A
 Frequencies --   1591.2509              1608.1799              1613.6052
 Red. masses --     10.8019                11.1074                10.8560
 Frc consts  --     16.1150                16.9252                16.6538
 IR Inten    --     10.4332                16.2706                 3.4429
 Raman Activ --      0.4014                12.5860                18.4897

                     82                     83                     84
                      A                      A                      A
 Frequencies --   1617.4135              1628.3186              1634.1822
 Red. masses --     11.0697                10.4356                11.0444
 Frc consts  --     17.0619                16.3023                17.3777
 IR Inten    --      1.6402               450.8064               424.6180
 Raman Activ --      6.8818                 1.0989                 3.7507

                     85                     86                     87
                      A                      A                      A
 Frequencies --   1660.3766              1662.2035              2962.6351
 Red. masses --      1.0884                 1.0876                 1.0830
 Frc consts  --      1.7679                 1.7704                 5.6008
 IR Inten    --     49.5411                58.5434               188.8890
 Raman Activ --      1.8866                 1.6585               152.8316

                     88                     89                     90
                      A                      A                      A
 Frequencies --   2962.8099              2965.4541              2966.8955
 Red. masses --      1.0832                 1.0833                 1.0834
 Frc consts  --      5.6023                 5.6127                 5.6190
 IR Inten    --     46.3490               188.9410                64.6959
 Raman Activ --    415.2441               223.3543               502.8522

                     91                     92                     93
                      A                      A                      A
 Frequencies --   2975.3399              2979.0999              3697.9286
 Red. masses --      1.0838                 1.0838                 1.0452
 Frc consts  --      5.6527                 5.6672                 8.4207
 IR Inten    --    133.1274                97.9954                30.4074
 Raman Activ --    362.1770               463.1597               119.5572

                     94                     95                     96
                      A                      A                      A
 Frequencies --   3704.2676              3789.3179              3796.7126
 Red. masses --      1.0451                 1.0810                 1.0807
 Frc consts  --      8.4489                 9.1450                 9.1785
 IR Inten    --     30.0703                93.6808                94.9231
 Raman Activ --    120.8955                 5.1099                 5.1693

 - Thermochemistry -
 -------------------
 Temperature   298.150 Kelvin.  Pressure   1.00000 Atm.
 Thermochemistry will use frequencies scaled by 0.9670.

 Molecular mass:   489.80679 amu.
 Principal axes and moments of inertia in atomic units:
                           1         2         3
     Eigenvalues --  7379.408068506.13755**********
           X           -0.53576   0.83794   0.10399
           Y            0.84083   0.54072  -0.02510
           Z            0.07726  -0.07399   0.99426
 This molecule is an asymmetric top.
 Rotational symmetry number  1.
 Warning -- assumption of classical behavior for rotation
           may cause significant error
 Rotational temperatures (Kelvin)      0.01174     0.01018     0.00785
 Rotational constants (GHZ):           0.24456     0.21217     0.16356
 Zero-point vibrational energy     505322.0 (Joules/Mol)
                                  120.77485 (Kcal/Mol)
 Warning -- explicit consideration of  52 degrees of freedom as
           vibrations may cause significant error
 Vibrational temperatures:     47.77    56.94    64.24    84.48   117.13
          (Kelvin)            119.90   125.91   133.37   137.11   143.39
                              160.06   169.04   177.06   181.98   191.50
                              197.88   217.40   221.62   231.94   247.25
                              253.51   259.31   267.67   273.78   290.39
                              300.52   306.33   335.59   348.67   350.18
                              367.35   373.47   378.32   401.36   405.06
                              423.72   428.61   433.30   448.06   471.74
                              484.92   491.79   492.96   494.57   504.62
                              523.86   543.59   553.40   807.85   843.20
                              849.62   884.01   910.50   932.75  1030.25
                             1034.62  1041.63  1053.14  1055.61  1059.15
                             1454.70  1454.93  1455.75  1456.99  1459.55
                             1459.79  1935.57  1935.73  1940.07  1940.42
                             1940.81  1943.30  1944.24  1946.19  1948.22
                             1950.52  1951.95  1955.17  2213.90  2237.46
                             2245.00  2250.30  2265.48  2273.63  2310.08
                             2312.62  4121.91  4122.15  4125.83  4127.83
                             4139.58  4144.81  5144.92  5153.74  5272.07
                             5282.36

 Zero-point correction=                           0.192467 (Hartree/Particle)
 Thermal correction to Energy=                    0.224480
 Thermal correction to Enthalpy=                  0.225424
 Thermal correction to Gibbs Free Energy=         0.127694
 Sum of electronic and zero-point Energies=          -5154.827000
 Sum of electronic and thermal Energies=             -5154.794987
 Sum of electronic and thermal Enthalpies=           -5154.794043
 Sum of electronic and thermal Free Energies=        -5154.891773

                     E (Thermal)             CV                S
                      KCal/Mol        Cal/Mol-Kelvin    Cal/Mol-Kelvin
 Total                  140.863            107.445            205.690
 Electronic               0.000              0.000              5.381
 Translational            0.889              2.981             44.454
 Rotational               0.889              2.981             34.892
 Vibrational            139.086            101.484            120.962
 Vibration     1          0.594              1.983              5.628
 Vibration     2          0.594              1.981              5.280
 Vibration     3          0.595              1.980              5.041
 Vibration     4          0.596              1.974              4.500
 Vibration     5          0.600              1.962              3.857
 Vibration     6          0.600              1.961              3.811
 Vibration     7          0.601              1.958              3.715
 Vibration     8          0.602              1.954              3.602
 Vibration     9          0.603              1.953              3.548
 Vibration    10          0.604              1.949              3.461
 Vibration    11          0.607              1.940              3.247
 Vibration    12          0.608              1.935              3.141
 Vibration    13          0.610              1.930              3.052
 Vibration    14          0.611              1.927              2.999
 Vibration    15          0.613              1.920              2.901
 Vibration    16          0.614              1.916              2.838
 Vibration    17          0.619              1.901              2.658
 Vibration    18          0.620              1.898              2.622
 Vibration    19          0.622              1.890              2.536
 Vibration    20          0.626              1.877              2.415
 Vibration    21          0.628              1.872              2.368
 Vibration    22          0.629              1.867              2.326
 Vibration    23          0.632              1.859              2.267
 Vibration    24          0.634              1.853              2.225
 Vibration    25          0.639              1.837              2.116
 Vibration    26          0.642              1.827              2.053
 Vibration    27          0.644              1.821              2.019
 Vibration    28          0.654              1.790              1.854
 Vibration    29          0.659              1.775              1.786
 Vibration    30          0.659              1.774              1.778
 Vibration    31          0.666              1.754              1.694
 Vibration    32          0.668              1.747              1.665
 Vibration    33          0.670              1.741              1.642
 Vibration    34          0.679              1.712              1.540
 Vibration    35          0.681              1.708              1.524
 Vibration    36          0.689              1.684              1.448
 Vibration    37          0.691              1.678              1.429
 Vibration    38          0.693              1.671              1.410
 Vibration    39          0.700              1.652              1.355
 Vibration    40          0.711              1.620              1.271
 Vibration    41          0.718              1.602              1.226
 Vibration    42          0.721              1.592              1.204
 Vibration    43          0.722              1.590              1.200
 Vibration    44          0.722              1.588              1.195
 Vibration    45          0.728              1.574              1.163
 Vibration    46          0.738              1.546              1.105
 Vibration    47          0.748              1.517              1.048
 Vibration    48          0.754              1.503              1.021
 Vibration    49          0.917              1.115              0.521
 Vibration    50          0.943              1.062              0.474
 Vibration    51          0.948              1.052              0.466
 Vibration    52          0.974              1.001              0.426

 Normal termination of Gaussian 16 at Wed Feb  1 19:24:00 2023.
