 Gaussian 16, Revision C.02,
 Gaussian 16:  ES64L-G16RevC.02  7-Dec-2021

 ----------------------------------------------------------------------
 #p opt=(cartesian,maxcycle=500) gen um06l int=grid=ultrafine scf=(xqc,
 intrep,maxconventionalcycle=150) pop=(hirshfeld) nosymm
 ----------------------------------------------------------------------

 --------------
 FeFeFe-A-2xH2O
 --------------
 Symbolic Z-matrix:
 Charge =  0 Multiplicity =15

 SCF Done:  E(UM06L) =  -5155.01916612     A.U. after   34 cycles
 SCF Done:  E(UM06L) =  -5155.01919639     A.U. after   20 cycles
 SCF Done:  E(UM06L) =  -5155.01924864     A.U. after   23 cycles
 SCF Done:  E(UM06L) =  -5155.01927190     A.U. after   19 cycles
 SCF Done:  E(UM06L) =  -5155.01931925     A.U. after   21 cycles
 SCF Done:  E(UM06L) =  -5155.01932339     A.U. after   24 cycles
 SCF Done:  E(UM06L) =  -5155.01934366     A.U. after   23 cycles
 SCF Done:  E(UM06L) =  -5155.01938403     A.U. after   24 cycles
 SCF Done:  E(UM06L) =  -5155.01939876     A.U. after   20 cycles
 SCF Done:  E(UM06L) =  -5155.01940938     A.U. after   20 cycles
 SCF Done:  E(UM06L) =  -5155.01946447     A.U. after   17 cycles
 SCF Done:  E(UM06L) =  -5155.01946489     A.U. after   17 cycles
 SCF Done:  E(UM06L) =  -5155.01946526     A.U. after   13 cycles
 SCF Done:  E(UM06L) =  -5155.01946576     A.U. after   18 cycles
 SCF Done:  E(UM06L) =  -5155.01946603     A.U. after   14 cycles
 SCF Done:  E(UM06L) =  -5155.01946617     A.U. after   13 cycles
 SCF Done:  E(UM06L) =  -5155.01946634     A.U. after   15 cycles
 SCF Done:  E(UM06L) =  -5155.01945398     A.U. after   23 cycles
 SCF Done:  E(UM06L) =  -5155.01946649     A.U. after   23 cycles
 SCF Done:  E(UM06L) =  -5155.01946670     A.U. after   18 cycles
 Optimization completed.
    -- Stationary point found.

                          Input orientation:
 ---------------------------------------------------------------------
 Center     Atomic      Atomic             Coordinates (Angstroms)
 Number     Number       Type             X           Y           Z
 ---------------------------------------------------------------------
      1          8           0        1.438376   -2.153135   -1.714415
      2          8           0       -0.787910   -2.248215   -1.379003
      3          6           0        0.283239   -2.579499   -1.940826
      4          1           0        0.193458   -3.339440   -2.736042
      5          8           0        1.967738    2.210024    1.386148
      6          8           0        3.200333    0.359363    1.026705
      7          6           0        2.951777    1.461566    1.572682
      8          1           0        3.693582    1.815721    2.310605
      9          8           0       -2.269227    0.138284   -1.172925
     10          8           0        2.780687    0.454344   -1.825857
     11          8           0        1.651777    2.372109   -1.474095
     12          6           0        2.472677    1.639545   -2.078080
     13          1           0        2.987971    2.098103   -2.940943
     14          8           0       -0.446029   -2.303451    1.424282
     15          8           0        1.786995   -2.256238    1.130629
     16          6           0        0.727521   -2.672470    1.656397
     17          1           0        0.839572   -3.460379    2.422306
     18         26           0       -1.069467   -0.895496    0.099433
     19          8           0       -1.988686    0.046986    1.635664
     20         26           0        0.371825    2.019492    0.145631
     21          8           0       -0.940384    2.040546    1.701308
     22          8           0       -1.303196    2.172945   -1.140902
     23         26           0        2.145922   -0.804606   -0.363559
     24          8           0        0.490938    0.113585   -0.043131
     25          6           0       -1.771980    1.192802    2.097383
     26          1           0       -2.390618    1.486751    2.962741
     27          6           0       -2.169600    1.341850   -1.502543
     28          1           0       -2.940358    1.712927   -2.201286
     29          8           0        0.173968    4.178308   -0.119801
     30          1           0        0.852175    4.304909   -0.799400
     31          1           0       -0.661858    4.183558   -0.609761
     32          8           0        4.064964   -1.839901   -0.254394
     33          1           0        4.523353   -1.216379    0.328429
     34          1           0        3.805872   -2.568391    0.329101
 ---------------------------------------------------------------------

 Alpha  occ. eigenvalues -- -255.61385-255.61166-255.61161 -30.05971 -30.05626
 Alpha  occ. eigenvalues --  -30.05617 -25.83635 -25.83310 -25.83308 -25.82836
 Alpha  occ. eigenvalues --  -25.82730 -25.82558 -25.82529 -25.82295 -25.82289
 Alpha  occ. eigenvalues --  -19.01897 -19.01888 -18.97425 -18.97406 -18.97399
 Alpha  occ. eigenvalues --  -18.97393 -18.97388 -18.97386 -18.97383 -18.97368
 Alpha  occ. eigenvalues --  -18.97307 -18.97296 -18.97261 -18.97243 -18.95315
 Alpha  occ. eigenvalues --  -10.17218 -10.17202 -10.17181 -10.17162 -10.17063
 Alpha  occ. eigenvalues --  -10.17053  -3.62866  -3.62622  -3.62614  -2.38075
 Alpha  occ. eigenvalues --   -2.37898  -2.37882  -2.36436  -2.36314  -2.36265
 Alpha  occ. eigenvalues --   -2.36189  -2.35780  -2.35760  -1.06167  -1.05903
 Alpha  occ. eigenvalues --   -1.05892  -1.05622  -1.05556  -1.05530  -1.04054
 Alpha  occ. eigenvalues --   -1.04026  -0.98305  -0.98266  -0.97994  -0.97903
 Alpha  occ. eigenvalues --   -0.97868  -0.97783  -0.92781  -0.58866  -0.57965
 Alpha  occ. eigenvalues --   -0.57743  -0.57517  -0.57361  -0.57289  -0.54078
 Alpha  occ. eigenvalues --   -0.54035  -0.48713  -0.48638  -0.47769  -0.47262
 Alpha  occ. eigenvalues --   -0.47233  -0.47045  -0.46885  -0.46814  -0.46426
 Alpha  occ. eigenvalues --   -0.46109  -0.45815  -0.45708  -0.44189  -0.43715
 Alpha  occ. eigenvalues --   -0.43110  -0.42041  -0.41940  -0.41282  -0.41222
 Alpha  occ. eigenvalues --   -0.40250  -0.40025  -0.39875  -0.38327  -0.37636
 Alpha  occ. eigenvalues --   -0.36832  -0.36788  -0.36449  -0.36318  -0.36280
 Alpha  occ. eigenvalues --   -0.35711  -0.35501  -0.35451  -0.35180  -0.33864
 Alpha  occ. eigenvalues --   -0.33323  -0.33037  -0.32290  -0.31846  -0.31290
 Alpha  occ. eigenvalues --   -0.29070  -0.28729  -0.28493  -0.28450  -0.28207
 Alpha  occ. eigenvalues --   -0.28176  -0.28051  -0.27915  -0.27396  -0.27243
 Alpha  occ. eigenvalues --   -0.26985  -0.26918  -0.26480  -0.24727  -0.23884
 Alpha  occ. eigenvalues --   -0.22132  -0.21963  -0.21580  -0.21361
 Alpha virt. eigenvalues --   -0.03320  -0.02702  -0.02659  -0.02352  -0.01446
 Alpha virt. eigenvalues --   -0.01276   0.01982   0.02686   0.03743   0.07531
 Alpha virt. eigenvalues --    0.07834   0.08228   0.08280   0.08904   0.09270

  Beta  occ. eigenvalues -- -255.61208-255.61001-255.60997 -29.94775 -29.94362
  Beta  occ. eigenvalues --  -29.94356 -25.75187 -25.74738 -25.74689 -25.74685
  Beta  occ. eigenvalues --  -25.74683 -25.74423 -25.74410 -25.74329 -25.74328
  Beta  occ. eigenvalues --  -19.01739 -19.01731 -18.97135 -18.97129 -18.97116
  Beta  occ. eigenvalues --  -18.97110 -18.97082 -18.97082 -18.97082 -18.97058
  Beta  occ. eigenvalues --  -18.97054 -18.97045 -18.96956 -18.96938 -18.93634
  Beta  occ. eigenvalues --  -10.17240 -10.17225 -10.17211 -10.17193 -10.17087
  Beta  occ. eigenvalues --  -10.17077  -3.38876  -3.38274  -3.38269  -2.13879
  Beta  occ. eigenvalues --   -2.13083  -2.13077  -2.13062  -2.13039  -2.12680
  Beta  occ. eigenvalues --   -2.12663  -2.12579  -2.12573  -1.05616  -1.05353
  Beta  occ. eigenvalues --   -1.05350  -1.05062  -1.04986  -1.04958  -1.03722
  Beta  occ. eigenvalues --   -1.03695  -0.97617  -0.97574  -0.97321  -0.97207
  Beta  occ. eigenvalues --   -0.97154  -0.97071  -0.88233  -0.58241  -0.57516
  Beta  occ. eigenvalues --   -0.57261  -0.56884  -0.56780  -0.56598  -0.53806
  Beta  occ. eigenvalues --   -0.53743  -0.47690  -0.47581  -0.46575  -0.46271
  Beta  occ. eigenvalues --   -0.46011  -0.45917  -0.45686  -0.45642  -0.45223
  Beta  occ. eigenvalues --   -0.45162  -0.44889  -0.44849  -0.42230  -0.41420
  Beta  occ. eigenvalues --   -0.41383  -0.41054  -0.41018  -0.40406  -0.39627
  Beta  occ. eigenvalues --   -0.39460  -0.35529  -0.35308  -0.33855  -0.33487
  Beta  occ. eigenvalues --   -0.30796  -0.30716  -0.30597  -0.29790  -0.28860
  Beta  occ. eigenvalues --   -0.28620  -0.28577  -0.28403  -0.28306  -0.28126
  Beta  occ. eigenvalues --   -0.27984  -0.27499  -0.27358  -0.27141  -0.27059
  Beta  occ. eigenvalues --   -0.26450  -0.26346  -0.26282  -0.24880  -0.16782
  Beta virt. eigenvalues --   -0.15084  -0.14995  -0.14948  -0.14754  -0.14517
  Beta virt. eigenvalues --   -0.14140  -0.13615  -0.10934  -0.10801  -0.08553
  Beta virt. eigenvalues --   -0.07786  -0.07730  -0.07390  -0.06864  -0.02332

 Mulliken charges and spin densities:
               1          2
     1  O   -0.565622   0.076612
     2  O   -0.558692   0.079882
     3  C    0.687114  -0.016111
     4  H    0.041134   0.017793
     5  O   -0.563392   0.079058
     6  O   -0.626788   0.069080
     7  C    0.702088  -0.017305
     8  H    0.034314   0.018258
     9  O   -0.555554   0.074729
    10  O   -0.563306   0.079257
    11  O   -0.624547   0.069941
    12  C    0.701572  -0.017342
    13  H    0.034228   0.018288
    14  O   -0.556494   0.074693
    15  O   -0.623912   0.063279
    16  C    0.701613  -0.013720
    17  H    0.034948   0.017098
    18  Fe   1.010708   4.162375
    19  O   -0.559203   0.080545
    20  Fe   1.017576   4.157859
    21  O   -0.563966   0.076770
    22  O   -0.627053   0.062678
    23  Fe   1.016873   4.156813
    24  O   -0.818495   0.555684
    25  C    0.686469  -0.016434
    26  H    0.041133   0.017839
    27  C    0.702048  -0.013995
    28  H    0.034706   0.017050
    29  O   -0.562024   0.033882
    30  H    0.370675   0.000409
    31  H    0.371135   0.000292
    32  O   -0.561210   0.033989
    33  H    0.370814   0.000426
    34  H    0.371111   0.000326
 Sum of Mulliken charges =  -0.00000  14.00000

 Dipole moment (field-independent basis, Debye):
    X=              1.7974    Y=              1.1491    Z=             -0.1546  Tot=              2.1389
 Quadrupole moment (field-independent basis, Debye-Ang):
   XX=           -149.3040   YY=           -146.7571   ZZ=           -156.4689
   XY=             -5.8977   XZ=              6.6728   YZ=            -10.8091

 Normal termination of Gaussian 16 at Wed Feb  1 05:54:43 2023.
