 Gaussian 16, Revision C.02,
 Gaussian 16:  ES64L-G16RevC.02  7-Dec-2021

 ----------------------------------------------------------------------
 #p freq=raman scale=0.967 guess=read geom=allcheck gen um06l int=grid=
 ultrafine scf=(xqc,intrep,maxconventionalcycle=150) pop=(hirshfeld) no
 symm
 ----------------------------------------------------------------------

 Structure from the checkpoint file:  "/scratch1/svicchi/G09-176073.pbs02/02-freq/FeFeFe-TS1-2xH2O-QST2-H2O_relax-1xH2O-freq.chk"
 -------------------------
 FeFeFe-TS1-1xH2O-reactant
 -------------------------
 Charge =  0 Multiplicity =15

                          Input orientation:
 ---------------------------------------------------------------------
 Center     Atomic      Atomic             Coordinates (Angstroms)
 Number     Number       Type             X           Y           Z
 ---------------------------------------------------------------------
      1          8           0       -0.043318    0.011614   -0.019254
      2          8           0       -0.008489    0.020749    2.234666
      3          6           0        0.519897    0.012031    1.111677
      4          1           0        1.623463    0.006737    1.086666
      5          8           0       -4.927222   -1.618096   -0.466310
      6          8           0       -3.855542    0.218805   -1.198390
      7          6           0       -4.852826   -0.526608   -1.080156
      8          1           0       -5.777923   -0.184788   -1.578069
      9          8           0       -1.372791   -2.207352    3.459471
     10          8           0       -1.734081   -1.614913   -1.576761
     11          8           0       -2.699643   -3.349878   -0.510803
     12          6           0       -2.015888   -2.826554   -1.419924
     13          1           0       -1.611174   -3.519866   -2.177345
     14          8           0       -2.486865    1.652600    2.452551
     15          8           0       -2.201650    1.878095    0.229013
     16          6           0       -2.475465    2.294223    1.390246
     17          1           0       -2.738930    3.364299    1.456644
     18         26           0       -1.865682   -0.206648    3.111964
     19          8           0       -3.817647   -0.611793    3.744034
     20         26           0       -3.681151   -2.432221    1.024923
     21          8           0       -5.105879   -1.846268    2.370244
     22          8           0       -2.805448   -3.569191    2.377797
     23         26           0       -2.014699   -0.033980   -0.316950
     24          8           0       -2.556404   -0.928577    1.198249
     25          6           0       -4.883272   -1.138085    3.394519
     26          1           0       -5.758331   -0.981580    4.050309
     27          6           0       -1.855974   -3.311231    3.173134
     28          1           0       -1.417376   -4.195549    3.667327
     29          7           0       -2.030201   -0.128128    6.007863
     30          7           0       -1.850009    0.054475    7.118625
     31          8           0       -1.324483    0.393364    4.757232
     32          8           0       -5.218985   -3.991238    0.779762
     33          1           0       -5.646524   -3.704147   -0.038697
     34          1           0       -5.821890   -3.700454    1.479531
 ---------------------------------------------------------------------

 SCF Done:  E(UM06L) =  -5263.22789406     A.U. after    1 cycles

 Alpha  occ. eigenvalues -- -255.65519-255.65027-255.62950 -30.10608 -30.09994
 Alpha  occ. eigenvalues --  -30.07623 -25.87686 -25.87623 -25.87536 -25.87153
 Alpha  occ. eigenvalues --  -25.86982 -25.86978 -25.85138 -25.84702 -25.84241
 Alpha  occ. eigenvalues --  -19.02712 -18.99792 -18.99269 -18.99116 -18.98992
 Alpha  occ. eigenvalues --  -18.98942 -18.98939 -18.98907 -18.98895 -18.98819
 Alpha  occ. eigenvalues --  -18.98310 -18.98305 -18.98217 -18.98203 -18.97149
 Alpha  occ. eigenvalues --  -14.29449 -14.23980 -10.19020 -10.18911 -10.18572
 Alpha  occ. eigenvalues --  -10.18403 -10.18397 -10.18338  -3.67459  -3.66761
 Alpha  occ. eigenvalues --   -3.64379  -2.41544  -2.41410  -2.41284  -2.40976
 Alpha  occ. eigenvalues --   -2.40634  -2.40613  -2.39275  -2.38376  -2.37471
 Alpha  occ. eigenvalues --   -1.07869  -1.07372  -1.07287  -1.07166  -1.06927
 Alpha  occ. eigenvalues --   -1.06848  -1.05166  -1.04906  -1.00031  -0.99591
 Alpha  occ. eigenvalues --   -0.99578  -0.99330  -0.99254  -0.99131  -0.93944
 Alpha  occ. eigenvalues --   -0.90984  -0.60433  -0.59325  -0.59154  -0.59011
 Alpha  occ. eigenvalues --   -0.58834  -0.58663  -0.54978  -0.54967  -0.50458
 Alpha  occ. eigenvalues --   -0.50248  -0.50000  -0.49136  -0.49042  -0.48588
 Alpha  occ. eigenvalues --   -0.48338  -0.48091  -0.47987  -0.47533  -0.47260
 Alpha  occ. eigenvalues --   -0.47008  -0.46059  -0.45128  -0.44562  -0.43842
 Alpha  occ. eigenvalues --   -0.43498  -0.43195  -0.42840  -0.42179  -0.41732
 Alpha  occ. eigenvalues --   -0.41560  -0.41392  -0.40642  -0.40258  -0.40025
 Alpha  occ. eigenvalues --   -0.39493  -0.39434  -0.39257  -0.38699  -0.38647
 Alpha  occ. eigenvalues --   -0.38370  -0.37812  -0.37647  -0.37245  -0.36466
 Alpha  occ. eigenvalues --   -0.34758  -0.33959  -0.33622  -0.33301  -0.30923
 Alpha  occ. eigenvalues --   -0.30374  -0.30343  -0.30172  -0.29970  -0.29749
 Alpha  occ. eigenvalues --   -0.29646  -0.29533  -0.29367  -0.28643  -0.28565
 Alpha  occ. eigenvalues --   -0.27962  -0.27835  -0.26308  -0.26178  -0.26071
 Alpha  occ. eigenvalues --   -0.25941  -0.23962  -0.23782  -0.23465  -0.22431
 Alpha virt. eigenvalues --   -0.14017  -0.04641  -0.04349  -0.03967  -0.03800
 Alpha virt. eigenvalues --   -0.03572  -0.02998  -0.02719   0.01418   0.02376
 Alpha virt. eigenvalues --    0.05353   0.06485   0.06743   0.07324   0.08047

  Beta  occ. eigenvalues -- -255.65345-255.64843-255.62780 -29.98844 -29.98476
  Beta  occ. eigenvalues --  -29.96199 -25.79044 -25.79020 -25.78964 -25.78692
  Beta  occ. eigenvalues --  -25.78584 -25.78528 -25.76496 -25.76392 -25.76124
  Beta  occ. eigenvalues --  -19.02539 -18.99910 -18.98955 -18.98786 -18.98698
  Beta  occ. eigenvalues --  -18.98664 -18.98606 -18.98532 -18.98494 -18.98455
  Beta  occ. eigenvalues --  -18.98032 -18.98018 -18.97913 -18.97907 -18.95290
  Beta  occ. eigenvalues --  -14.29861 -14.24522 -10.19022 -10.18914 -10.18567
  Beta  occ. eigenvalues --  -10.18403 -10.18391 -10.18335  -3.42294  -3.42164
  Beta  occ. eigenvalues --   -3.39978  -2.16909  -2.16729  -2.16675  -2.16650
  Beta  occ. eigenvalues --   -2.16419  -2.16385  -2.14528  -2.14458  -2.14151
  Beta  occ. eigenvalues --   -1.07238  -1.06748  -1.06662  -1.06498  -1.06414
  Beta  occ. eigenvalues --   -1.06230  -1.06163  -1.04549  -0.99265  -0.98853
  Beta  occ. eigenvalues --   -0.98788  -0.98549  -0.98412  -0.98314  -0.93338
  Beta  occ. eigenvalues --   -0.88809  -0.59669  -0.58701  -0.58455  -0.58358
  Beta  occ. eigenvalues --   -0.57982  -0.57799  -0.56678  -0.54648  -0.49246
  Beta  occ. eigenvalues --   -0.48932  -0.47952  -0.47671  -0.47473  -0.47114
  Beta  occ. eigenvalues --   -0.46990  -0.46896  -0.46667  -0.46602  -0.46310
  Beta  occ. eigenvalues --   -0.46162  -0.45104  -0.43554  -0.42557  -0.42426
  Beta  occ. eigenvalues --   -0.42264  -0.42161  -0.41833  -0.41028  -0.40783
  Beta  occ. eigenvalues --   -0.40234  -0.36808  -0.35397  -0.34416  -0.32418
  Beta  occ. eigenvalues --   -0.32228  -0.31708  -0.30824  -0.30781  -0.30520
  Beta  occ. eigenvalues --   -0.30475  -0.30074  -0.29954  -0.29863  -0.29577
  Beta  occ. eigenvalues --   -0.28871  -0.28707  -0.28428  -0.28274  -0.27916
  Beta  occ. eigenvalues --   -0.27887  -0.27765  -0.27441  -0.26841  -0.26061
  Beta  occ. eigenvalues --   -0.20539
  Beta virt. eigenvalues --   -0.18156  -0.18010  -0.17494  -0.17048  -0.16687
  Beta virt. eigenvalues --   -0.15372  -0.15059  -0.14795  -0.13439  -0.12507
  Beta virt. eigenvalues --   -0.12096  -0.11072  -0.10666  -0.09830  -0.07881

 Mulliken charges and spin densities:
               1          2
     1  O   -0.553799   0.098944
     2  O   -0.535496   0.075127
     3  C    0.697522  -0.001090
     4  H    0.053144   0.019147
     5  O   -0.610569   0.070945
     6  O   -0.543450   0.076189
     7  C    0.703664  -0.000924
     8  H    0.048071   0.018439
     9  O   -0.534214   0.075553
    10  O   -0.554754   0.081960
    11  O   -0.545576   0.087034
    12  C    0.687113  -0.001774
    13  H    0.053341   0.019413
    14  O   -0.534308   0.076214
    15  O   -0.561599   0.101337
    16  C    0.692943  -0.002005
    17  H    0.051678   0.019563
    18  Fe   1.006464   4.175800
    19  O   -0.552476   0.063066
    20  Fe   1.014349   4.280648
    21  O   -0.612308   0.090614
    22  O   -0.564155   0.112885
    23  Fe   1.028327   4.251144
    24  O   -0.743543   0.637441
    25  C    0.706485   0.003429
    26  H    0.045223   0.019481
    27  C    0.692437   0.002328
    28  H    0.051022   0.020864
    29  N    0.225859  -0.154710
    30  N   -0.152458  -0.260154
    31  O   -0.357720  -0.098688
    32  O   -0.540813   0.041464
    33  H    0.371354   0.000195
    34  H    0.368240   0.000120
 Sum of Mulliken charges =  -0.00000  14.00000

 Dipole moment (field-independent basis, Debye):
    X=             -3.3827    Y=             -2.0083    Z=             -3.0441  Tot=              4.9742
 Quadrupole moment (field-independent basis, Debye-Ang):
   XX=           -134.9901   YY=           -162.2316   ZZ=           -188.0049
   XY=              9.8849   XZ=              0.6434   YZ=             -2.4675

  Exact polarizability:     215.103      18.377     221.382      13.212      15.945     329.885
 Approx polarizability:     379.298      59.517     409.571      10.055      12.423     740.328

 ******    2 imaginary frequencies (negative Signs) ******

                      1                      2                      3
                      A                      A                      A
 Frequencies --   -634.3345                -9.6975                22.8466
 Red. masses --     15.0536                12.6113                10.1500
 Frc consts  --      3.5688                 0.0007                 0.0031
 IR Inten    --     22.8296                 0.0974                 0.3067
 Raman Activ --   4361.7655                 6.1109                 0.4560

                      4                      5                      6
                      A                      A                      A
 Frequencies --     30.8466                42.7883                56.4853
 Red. masses --      6.7494                10.3654                12.3822
 Frc consts  --      0.0038                 0.0112                 0.0233
 IR Inten    --      3.8119                 0.7998                 0.5157
 Raman Activ --      0.6177                 0.6284                 6.2752

                      7                      8                      9
                      A                      A                      A
 Frequencies --     74.1090                86.3919                88.2938
 Red. masses --      2.4748                 8.0672                 8.1662
 Frc consts  --      0.0080                 0.0355                 0.0375
 IR Inten    --     18.2096                 1.0637                 1.1462
 Raman Activ --      2.5720                 1.5068                 0.5798

                     10                     11                     12
                      A                      A                      A
 Frequencies --     92.3951               100.3422               109.6543
 Red. masses --      6.1573                 6.5495                 7.8543
 Frc consts  --      0.0310                 0.0389                 0.0556
 IR Inten    --      1.1367                 1.5731                 2.0595
 Raman Activ --      1.8381                 5.3567                 1.7128

                     13                     14                     15
                      A                      A                      A
 Frequencies --    117.1257               121.5108               132.9837
 Red. masses --      7.9080                 4.9954                 9.3270
 Frc consts  --      0.0639                 0.0435                 0.0972
 IR Inten    --      0.6642                 0.1030                 1.2591
 Raman Activ --      2.4644                 9.6186                 0.8381

                     16                     17                     18
                      A                      A                      A
 Frequencies --    134.7917               137.3986               144.9136
 Red. masses --      6.4946                 8.2588                 3.2878
 Frc consts  --      0.0695                 0.0919                 0.0407
 IR Inten    --      0.8857                 2.5904                 7.4475
 Raman Activ --      0.7887                 1.9196                 0.3104

                     19                     20                     21
                      A                      A                      A
 Frequencies --    149.1035               159.6484               162.3600
 Red. masses --      8.5156                 4.0494                10.0006
 Frc consts  --      0.1115                 0.0608                 0.1553
 IR Inten    --      2.5505                 3.2209                 0.9572
 Raman Activ --      1.2063                 0.9409                 0.4648

                     22                     23                     24
                      A                      A                      A
 Frequencies --    172.3927               178.8733               183.7006
 Red. masses --      8.8337                11.5313                 8.6475
 Frc consts  --      0.1547                 0.2174                 0.1719
 IR Inten    --      1.4600                 2.5734                29.7558
 Raman Activ --      3.1822                 2.3133                 2.0908

                     25                     26                     27
                      A                      A                      A
 Frequencies --    185.1688               187.7964               192.8277
 Red. masses --      5.2793                12.8398                 7.9297
 Frc consts  --      0.1067                 0.2668                 0.1737
 IR Inten    --     17.7230                 1.2841                 8.6598
 Raman Activ --      0.8287                 3.0943                 4.7105

                     28                     29                     30
                      A                      A                      A
 Frequencies --    206.7631               218.6384               224.4807
 Red. masses --      9.8295                 5.3090                 7.4847
 Frc consts  --      0.2476                 0.1495                 0.2222
 IR Inten    --      5.7393                11.0013                 1.2552
 Raman Activ --      0.8756                 1.9247                 3.8626

                     31                     32                     33
                      A                      A                      A
 Frequencies --    228.1115               234.3631               238.5903
 Red. masses --      4.0364                 9.6268                 3.8302
 Frc consts  --      0.1237                 0.3115                 0.1285
 IR Inten    --      2.9355                 0.4225                 0.3019
 Raman Activ --      2.0235                 2.3891                 2.9994

                     34                     35                     36
                      A                      A                      A
 Frequencies --    250.1293               267.1830               271.4180
 Red. masses --      7.8636                 8.8389                 4.1035
 Frc consts  --      0.2899                 0.3718                 0.1781
 IR Inten    --      5.6388                 8.5004                13.9174
 Raman Activ --      3.4071                 1.8694                 2.5687

                     37                     38                     39
                      A                      A                      A
 Frequencies --    280.4368               283.9960               290.9944
 Red. masses --      6.4881                 4.4868                 6.0582
 Frc consts  --      0.3006                 0.2132                 0.3022
 IR Inten    --      8.0284                 9.1330                14.4345
 Raman Activ --      1.3935                 4.5364                 3.8880

                     40                     41                     42
                      A                      A                      A
 Frequencies --    297.5878               303.2971               317.7233
 Red. masses --      5.8494                 5.6611                 5.0901
 Frc consts  --      0.3052                 0.3068                 0.3027
 IR Inten    --     38.3706                23.3406                 0.4537
 Raman Activ --      1.7903                13.2348                28.3004

                     43                     44                     45
                      A                      A                      A
 Frequencies --    322.2665               329.8662               353.1446
 Red. masses --      9.5151                 9.7305                 8.5370
 Frc consts  --      0.5822                 0.6238                 0.6273
 IR Inten    --     24.1415                42.9808                 0.5028
 Raman Activ --     13.6693                 8.6743                 9.4119

                     46                     47                     48
                      A                      A                      A
 Frequencies --    366.3051               371.3219               375.2219
 Red. masses --     13.4851                11.7120                12.5811
 Frc consts  --      1.0661                 0.9514                 1.0436
 IR Inten    --     16.8221                34.5704                83.5271
 Raman Activ --    252.8772                 7.6107               374.3904

                     49                     50                     51
                      A                      A                      A
 Frequencies --    399.8681               408.0197               422.3805
 Red. masses --     12.6695                13.8371                11.1633
 Frc consts  --      1.1936                 1.3572                 1.1734
 IR Inten    --    184.8046               214.8730               116.6605
 Raman Activ --      4.1197                 0.2894                63.7876

                     52                     53                     54
                      A                      A                      A
 Frequencies --    522.1789               599.7725               608.8691
 Red. masses --     15.0471                 1.2288                13.3132
 Frc consts  --      2.4174                 0.2604                 2.9079
 IR Inten    --    174.7072               312.6594               170.1669
 Raman Activ --    177.8698                 4.4174               258.8346

                     55                     56                     57
                      A                      A                      A
 Frequencies --    650.1167               672.8815               737.1390
 Red. masses --      1.1969                 9.2849                11.2405
 Frc consts  --      0.2981                 2.4769                 3.5986
 IR Inten    --    230.8802               102.3756                17.6983
 Raman Activ --     10.6039                88.1393                 2.4236

                     58                     59                     60
                      A                      A                      A
 Frequencies --    738.7907               744.4932               751.0764
 Red. masses --     11.2259                11.2629                11.4893
 Frc consts  --      3.6101                 3.6781                 3.8187
 IR Inten    --      1.8332                59.3077                 9.4929
 Raman Activ --      1.7266                 0.3084                 8.4810

                     61                     62                     63
                      A                      A                      A
 Frequencies --    756.9768               759.1370              1052.1694
 Red. masses --     10.7020                11.0362                 1.6853
 Frc consts  --      3.6131                 3.7472                 1.0992
 IR Inten    --      8.7641                25.5936                 0.0745
 Raman Activ --      1.4880                 4.0180                 0.8036

                     64                     65                     66
                      A                      A                      A
 Frequencies --   1053.0469              1053.3130              1054.5765
 Red. masses --      1.6956                 1.6864                 1.6860
 Frc consts  --      1.1078                 1.1024                 1.1048
 IR Inten    --      0.0378                 0.0608                 0.0243
 Raman Activ --      0.5375                 4.4143                 0.7124

                     67                     68                     69
                      A                      A                      A
 Frequencies --   1055.0194              1057.0632              1376.4397
 Red. masses --      1.7000                 1.6893                 3.1599
 Frc consts  --      1.1148                 1.1121                 3.5272
 IR Inten    --      0.0343                 0.0223                18.2780
 Raman Activ --      2.7632                 5.0071                 2.5591

                     70                     71                     72
                      A                      A                      A
 Frequencies --   1379.2784              1382.5334              1386.4069
 Red. masses --      3.2564                 2.2734                 2.2204
 Frc consts  --      3.6500                 2.5602                 2.5145
 IR Inten    --    170.9885                83.1073               232.5088
 Raman Activ --      2.8464                 2.1830                 5.5365

                     73                     74                     75
                      A                      A                      A
 Frequencies --   1392.0108              1393.0772              1397.7847
 Red. masses --      1.1442                 1.1562                 4.6777
 Frc consts  --      1.3063                 1.3220                 5.3847
 IR Inten    --     10.8207                23.7461               145.9471
 Raman Activ --      6.1124                 5.5935                 2.6434

                     76                     77                     78
                      A                      A                      A
 Frequencies --   1400.1084              1401.5617              1402.0107
 Red. masses --      1.6860                 1.6178                 2.2694
 Frc consts  --      1.9473                 1.8724                 2.6282
 IR Inten    --     69.0987               149.5228               113.9377
 Raman Activ --      3.2632                 1.7300                 1.2973

                     79                     80                     81
                      A                      A                      A
 Frequencies --   1405.2605              1409.6228              1584.8915
 Red. masses --      1.7652                 2.7612                10.5727
 Frc consts  --      2.0538                 3.2327                15.6471
 IR Inten    --    105.0092                 3.2729                 1.9843
 Raman Activ --      3.6447                21.6170                 2.1153

                     82                     83                     84
                      A                      A                      A
 Frequencies --   1605.7316              1610.5525              1618.4246
 Red. masses --     11.4551                11.2757                11.4898
 Frc consts  --     17.4018                17.2323                17.7316
 IR Inten    --      2.3952                20.0201                13.1221
 Raman Activ --      2.6189                55.6316                45.4766

                     85                     86                     87
                      A                      A                      A
 Frequencies --   1659.0298              1689.9996              1701.9826
 Red. masses --      1.0924                10.9830                11.0201
 Frc consts  --      1.7715                18.4818                18.8082
 IR Inten    --     91.8870              1201.5868              1617.2148
 Raman Activ --      2.8743               260.7043              1041.7894

                     88                     89                     90
                      A                      A                      A
 Frequencies --   1910.3967              2965.5332              2966.9010
 Red. masses --     14.0146                 1.0836                 1.0841
 Frc consts  --     30.1355                 5.6148                 5.6225
 IR Inten    --    260.2137                66.2083               132.8461
 Raman Activ --    169.1519               229.4399               446.1281

                     91                     92                     93
                      A                      A                      A
 Frequencies --   2974.1513              2975.0545              2976.6858
 Red. masses --      1.0839                 1.0839                 1.0843
 Frc consts  --      5.6488                 5.6521                 5.6605
 IR Inten    --     90.0178               109.9635                72.4389
 Raman Activ --    250.5579               287.2801               496.5133

                     94                     95                     96
                      A                      A                      A
 Frequencies --   2980.6734              3715.1196              3812.0647
 Red. masses --      1.0846                 1.0455                 1.0803
 Frc consts  --      5.6773                 8.5022                 9.2497
 IR Inten    --    101.3213                29.1959                92.0105
 Raman Activ --    644.5328                86.4540                12.7856

 - Thermochemistry -
 -------------------
 Temperature   298.150 Kelvin.  Pressure   1.00000 Atm.
 Thermochemistry will use frequencies scaled by 0.9670.

 Molecular mass:   515.79729 amu.
 Principal axes and moments of inertia in atomic units:
                           1         2         3
     Eigenvalues --  7742.27194********************
           X            0.27308   0.56016   0.78208
           Y            0.29642   0.72443  -0.62237
           Z            0.91519  -0.40178  -0.03178
 This molecule is an asymmetric top.
 Rotational symmetry number  1.
 Warning -- assumption of classical behavior for rotation
           may cause significant error
 Rotational temperatures (Kelvin)      0.01119     0.00800     0.00638
 Rotational constants (GHZ):           0.23310     0.16678     0.13289
    2 imaginary frequencies ignored.
 Zero-point vibrational energy     460788.1 (Joules/Mol)
                                  110.13101 (Kcal/Mol)
 Warning -- explicit consideration of  52 degrees of freedom as
           vibrations may cause significant error
 Vibrational temperatures:     31.79    42.92    59.53    78.59   103.11
          (Kelvin)            120.20   122.84   128.55   139.61   152.56
                              162.96   169.06   185.02   187.54   191.16
                              201.62   207.45   222.12   225.89   239.85
                              248.87   255.58   257.62   261.28   268.28
                              287.67   304.19   312.32   317.37   326.07
                              331.95   348.00   371.73   377.62   390.17
                              395.12   404.86   414.03   421.98   442.05
                              448.37   458.94   491.33   509.64   516.62
                              522.05   556.34   567.68   587.66   726.51
                              834.46   847.12   904.51   936.18  1025.58
                             1027.88  1035.81  1044.97  1053.18  1056.19
                             1463.88  1465.10  1465.47  1467.23  1467.85
                             1470.69  1915.04  1918.99  1923.51  1928.90
                             1936.70  1938.18  1944.73  1947.97  1949.99
                             1950.61  1955.14  1961.20  2205.06  2234.05
                             2240.76  2251.71  2308.20  2351.29  2367.96
                             2657.93  4125.94  4127.84  4137.93  4139.19
                             4141.46  4147.00  5168.84  5303.72

 Zero-point correction=                           0.175505 (Hartree/Particle)
 Thermal correction to Energy=                    0.208176
 Thermal correction to Enthalpy=                  0.209120
 Thermal correction to Gibbs Free Energy=         0.108950
 Sum of electronic and zero-point Energies=          -5263.052389
 Sum of electronic and thermal Energies=             -5263.019718
 Sum of electronic and thermal Enthalpies=           -5263.018774
 Sum of electronic and thermal Free Energies=        -5263.118944

                     E (Thermal)             CV                S
                      KCal/Mol        Cal/Mol-Kelvin    Cal/Mol-Kelvin
 Total                  130.633            108.486            210.826
 Electronic               0.000              0.000              5.381
 Translational            0.889              2.981             44.608
 Rotational               0.889              2.981             35.385
 Vibrational            128.855            102.524            125.451
 Vibration     1          0.593              1.985              6.437
 Vibration     2          0.594              1.984              5.841
 Vibration     3          0.594              1.981              5.192
 Vibration     4          0.596              1.976              4.643
 Vibration     5          0.598              1.968              4.107
 Vibration     6          0.600              1.961              3.806
 Vibration     7          0.601              1.959              3.763
 Vibration     8          0.602              1.957              3.674
 Vibration     9          0.603              1.951              3.513
 Vibration    10          0.605              1.944              3.340
 Vibration    11          0.607              1.938              3.212
 Vibration    12          0.608              1.935              3.141
 Vibration    13          0.611              1.925              2.967
 Vibration    14          0.612              1.923              2.941
 Vibration    15          0.613              1.921              2.904
 Vibration    16          0.615              1.913              2.802
 Vibration    17          0.616              1.909              2.748
 Vibration    18          0.620              1.898              2.618
 Vibration    19          0.621              1.895              2.586
 Vibration    20          0.624              1.883              2.472
 Vibration    21          0.626              1.876              2.403
 Vibration    22          0.628              1.870              2.353
 Vibration    23          0.629              1.868              2.338
 Vibration    24          0.630              1.865              2.312
 Vibration    25          0.632              1.858              2.263
 Vibration    26          0.638              1.840              2.134
 Vibration    27          0.643              1.823              2.031
 Vibration    28          0.646              1.815              1.983
 Vibration    29          0.647              1.810              1.954
 Vibration    30          0.650              1.800              1.905
 Vibration    31          0.652              1.794              1.873
 Vibration    32          0.658              1.776              1.789
 Vibration    33          0.667              1.749              1.673
 Vibration    34          0.670              1.742              1.645
 Vibration    35          0.675              1.726              1.589
 Vibration    36          0.677              1.720              1.567
 Vibration    37          0.681              1.708              1.525
 Vibration    38          0.685              1.696              1.487
 Vibration    39          0.688              1.686              1.455
 Vibration    40          0.697              1.660              1.377
 Vibration    41          0.700              1.652              1.354
 Vibration    42          0.705              1.637              1.315
 Vibration    43          0.721              1.593              1.205
 Vibration    44          0.730              1.567              1.147
 Vibration    45          0.734              1.557              1.126
 Vibration    46          0.737              1.549              1.110
 Vibration    47          0.755              1.499              1.013
 Vibration    48          0.762              1.482              0.983
 Vibration    49          0.773              1.452              0.932
 Vibration    50          0.860              1.239              0.646
 Vibration    51          0.937              1.075              0.485
 Vibration    52          0.946              1.056              0.469

 Normal termination of Gaussian 16 at Wed Feb 22 14:24:53 2023.
